 Gaussian 09, Revision C.01,
 Gaussian 09:  EM64L-G09RevC.01 23-Sep-2011

 --------------------------------------------------
 # mPW1PW91/6-31+G** nmr scrf=(pcm,solvent=benzene)
 --------------------------------------------------

 99/9=1/99;
 -------
 comment
 -------
 Charge =  0 Multiplicity = 1

                         Standard orientation:
 ---------------------------------------------------------------------
 Center     Atomic      Atomic             Coordinates (Angstroms)
 Number     Number       Type             X           Y           Z
 ---------------------------------------------------------------------
      1          6           0        2.241883   -0.265745    0.365093
      2          6           0        0.109896    1.139470    0.161691
      3          6           0       -0.048867   -1.368753    0.196527
      4          6           0       -0.678902   -0.074380   -0.358735
      5          6           0        1.445339   -1.480427   -0.140225
      6          6           0        1.603897    1.026179   -0.172833
      7          6           0        3.728207   -0.359200    0.002205
      8          8           0       -0.456699    2.311686   -0.431039
      9          6           0       -2.209822    0.052263   -0.121254
     10          6           0       -2.622048    0.006384    1.359366
     11          6           0       -2.996628   -0.991145   -0.931092
     12          1           0        2.161117   -0.249464    1.464139
     13          1           0        0.000996    1.190329    1.259383
     14          1           0       -0.580739   -2.242370   -0.197969
     15          1           0       -0.169198   -1.401405    1.288530
     16          1           0       -0.534925   -0.077103   -1.451208
     17          1           0        1.570149   -1.560329   -1.230895
     18          1           0        1.859196   -2.403135    0.288455
     19          1           0        1.712656    1.066644   -1.266422
     20          1           0        2.135535    1.902640    0.229165
     21          1           0        3.865831   -0.379900   -1.086476
     22          1           0        4.290187    0.497944    0.392546
     23          1           0        4.179630   -1.270738    0.412035
     24          1           0        0.052326    3.073830   -0.113824
     25          1           0       -2.486570    1.040597   -0.506402
     26          1           0       -2.411249   -0.969570    1.813303
     27          1           0       -2.109879    0.771945    1.952802
     28          1           0       -3.699446    0.184886    1.458166
     29          1           0       -2.815722   -2.012372   -0.573452
     30          1           0       -2.729091   -0.956696   -1.994336
     31          1           0       -4.074937   -0.807100   -0.853685
 ---------------------------------------------------------------------

 SCF Done:  E(RmPW1PW91) =  -468.285870851     A.U. after   12 cycles

      1  C    Isotropic =   162.2500   Anisotropy =    11.5158

      2  C    Isotropic =   124.1468   Anisotropy =    51.4829

      3  C    Isotropic =   171.5133   Anisotropy =    12.5745

      4  C    Isotropic =   145.8071   Anisotropy =    13.0766

      5  C    Isotropic =   159.9528   Anisotropy =    20.1072

      6  C    Isotropic =   149.2490   Anisotropy =    37.2437

      7  C    Isotropic =   173.0381   Anisotropy =    38.0900

      8  O    Isotropic =   275.3386   Anisotropy =    56.0321

      9  C    Isotropic =   168.0399   Anisotropy =    11.0496

     10  C    Isotropic =   180.3921   Anisotropy =    25.4939

     11  C    Isotropic =   174.1185   Anisotropy =    36.1910

     12  H    Isotropic =    30.1106   Anisotropy =     6.3852

     13  H    Isotropic =    27.9926   Anisotropy =     2.1213

     14  H    Isotropic =    29.9466   Anisotropy =     8.7660

     15  H    Isotropic =    30.5293   Anisotropy =     6.7267

     16  H    Isotropic =    30.3307   Anisotropy =     3.3140

     17  H    Isotropic =    30.6671   Anisotropy =     6.9745

     18  H    Isotropic =    30.0172   Anisotropy =     8.9890

     19  H    Isotropic =    30.5504   Anisotropy =     4.8664

     20  H    Isotropic =    29.9736   Anisotropy =     6.7492

     21  H    Isotropic =    30.9348   Anisotropy =     8.3631

     22  H    Isotropic =    30.6294   Anisotropy =    10.5516

     23  H    Isotropic =    30.5683   Anisotropy =    10.5551

     24  H    Isotropic =    30.9128   Anisotropy =    18.2442

     25  H    Isotropic =    28.9988   Anisotropy =     6.8178

     26  H    Isotropic =    31.0370   Anisotropy =     7.5047

     27  H    Isotropic =    30.5327   Anisotropy =     8.9362

     28  H    Isotropic =    30.8839   Anisotropy =    10.9763

     29  H    Isotropic =    30.6378   Anisotropy =     7.1764

     30  H    Isotropic =    30.8110   Anisotropy =    10.1557

     31  H    Isotropic =    30.6126   Anisotropy =    10.7593

 The electronic state is 1-A.
 Alpha  occ. eigenvalues --  -19.24570 -10.29412 -10.25258 -10.24499 -10.24374
 Alpha  occ. eigenvalues --  -10.24142 -10.24031 -10.23996 -10.23525 -10.22876
 Alpha  occ. eigenvalues --  -10.22873  -1.05111  -0.86145  -0.82063  -0.76552
 Alpha  occ. eigenvalues --   -0.75414  -0.69828  -0.69593  -0.63508  -0.61644
 Alpha  occ. eigenvalues --   -0.57842  -0.55684  -0.52270  -0.48357  -0.47457
 Alpha  occ. eigenvalues --   -0.46259  -0.45390  -0.43614  -0.42088  -0.41057
 Alpha  occ. eigenvalues --   -0.40194  -0.39801  -0.39237  -0.38451  -0.37498
 Alpha  occ. eigenvalues --   -0.35517  -0.35317  -0.34938  -0.33443  -0.33021
 Alpha  occ. eigenvalues --   -0.32174  -0.31111  -0.30037  -0.28000
 Alpha virt. eigenvalues --    0.00682   0.01606   0.01862   0.02495   0.03644
 Alpha virt. eigenvalues --    0.04383   0.04661   0.05087   0.05742   0.06672
 Alpha virt. eigenvalues --    0.07124   0.07618   0.07852   0.08776   0.09202

 Mulliken atomic charges:
              1
     1  C    0.288175
     2  C    0.142821
     3  C   -0.345344
     4  C   -0.269450
     5  C   -0.412533
     6  C   -0.563784
     7  C   -0.730118
     8  O   -0.524087
     9  C    0.220610
    10  C   -0.607816
    11  C   -0.631863
    12  H    0.158095
    13  H    0.140246
    14  H    0.158881
    15  H    0.164756
    16  H    0.160075
    17  H    0.163353
    18  H    0.156777
    19  H    0.178687
    20  H    0.148468
    21  H    0.164084
    22  H    0.162694
    23  H    0.164161
    24  H    0.362096
    25  H    0.182990
    26  H    0.161238
    27  H    0.158705
    28  H    0.164209
    29  H    0.158165
    30  H    0.162084
    31  H    0.163625
 Sum of Mulliken atomic charges =   0.00000

 Dipole moment (field-independent basis, Debye):
    X=              1.4994    Y=             -0.0927    Z=              1.0569  Tot=              1.8368
 Quadrupole moment (field-independent basis, Debye-Ang):
   XX=            -73.0234   YY=            -69.6622   ZZ=            -72.8215
   XY=              3.0819   XZ=              0.0522   YZ=              2.6908

 Normal termination of Gaussian 09 at Thu Sep 19 07:48:57 2024.
