 Gaussian 09, Revision C.01,
 Gaussian 09:  EM64L-G09RevC.01 23-Sep-2011

 --------------------------------------------------
 # mPW1PW91/6-31+G** nmr scrf=(pcm,solvent=benzene)
 --------------------------------------------------

 99/9=1/99;
 -------
 comment
 -------
 Charge =  0 Multiplicity = 1

                         Standard orientation:
 ---------------------------------------------------------------------
 Center     Atomic      Atomic             Coordinates (Angstroms)
 Number     Number       Type             X           Y           Z
 ---------------------------------------------------------------------
      1          6           0       -2.329027   -0.213177   -0.296017
      2          6           0       -0.087962    1.043091   -0.399273
      3          6           0       -0.109348   -1.455438   -0.146568
      4          6           0        0.682345   -0.167656    0.188352
      5          6           0       -1.577243   -1.410826    0.299441
      6          6           0       -1.560597    1.072897    0.037534
      7          6           0       -3.785504   -0.147182    0.176566
      8          8           0        0.510307    2.314694   -0.123617
      9          6           0        2.168921   -0.236137   -0.283631
     10          6           0        2.808540   -1.623622   -0.086845
     11          6           0        3.061682    0.814150    0.403156
     12          1           0       -2.331642   -0.329360   -1.391863
     13          1           0       -0.046019    0.965747   -1.494456
     14          1           0        0.375688   -2.318786    0.319083
     15          1           0       -0.067311   -1.628415   -1.233308
     16          1           0        0.681906   -0.059761    1.288269
     17          1           0       -1.623577   -1.350107    1.398065
     18          1           0       -2.076590   -2.348525    0.020795
     19          1           0       -1.598030    1.236571    1.128088
     20          1           0       -2.036560    1.946144   -0.425626
     21          1           0       -3.839914   -0.031462    1.266954
     22          1           0       -4.313404    0.701506   -0.274505
     23          1           0       -4.330922   -1.061025   -0.088120
     24          1           0        0.469682    2.447077    0.837783
     25          1           0        2.172675   -0.024602   -1.364540
     26          1           0        2.769671   -1.935470    0.965649
     27          1           0        2.329882   -2.403549   -0.686483
     28          1           0        3.865028   -1.590581   -0.377314
     29          1           0        3.086669    0.648120    1.489423
     30          1           0        2.706070    1.827444    0.215411
     31          1           0        4.093389    0.734883    0.039344
 ---------------------------------------------------------------------

 SCF Done:  E(RmPW1PW91) =  -468.281830357     A.U. after   12 cycles

      1  C    Isotropic =   161.5359   Anisotropy =    11.0747

      2  C    Isotropic =   116.8548   Anisotropy =    40.4579

      3  C    Isotropic =   164.3279   Anisotropy =    20.0089

      4  C    Isotropic =   143.3366   Anisotropy =    12.2796

      5  C    Isotropic =   160.0601   Anisotropy =    20.9748

      6  C    Isotropic =   148.3710   Anisotropy =    39.5295

      7  C    Isotropic =   173.3162   Anisotropy =    37.5839

      8  O    Isotropic =   259.5961   Anisotropy =    43.0673

      9  C    Isotropic =   159.6186   Anisotropy =    19.8568

     10  C    Isotropic =   173.7721   Anisotropy =    27.4920

     11  C    Isotropic =   170.8557   Anisotropy =    36.2639

     12  H    Isotropic =    30.0497   Anisotropy =     6.6276

     13  H    Isotropic =    28.2788   Anisotropy =     1.8814

     14  H    Isotropic =    29.7662   Anisotropy =     8.3381

     15  H    Isotropic =    30.6008   Anisotropy =     6.8107

     16  H    Isotropic =    30.9503   Anisotropy =     2.8694

     17  H    Isotropic =    30.7395   Anisotropy =     6.6604

     18  H    Isotropic =    30.0111   Anisotropy =     8.8932

     19  H    Isotropic =    30.9279   Anisotropy =     4.3565

     20  H    Isotropic =    29.6511   Anisotropy =     6.6330

     21  H    Isotropic =    30.9950   Anisotropy =     8.2726

     22  H    Isotropic =    30.5785   Anisotropy =    10.5449

     23  H    Isotropic =    30.5493   Anisotropy =    10.5920

     24  H    Isotropic =    31.6336   Anisotropy =    12.9526

     25  H    Isotropic =    30.0029   Anisotropy =     5.6738

     26  H    Isotropic =    31.0171   Anisotropy =     7.9612

     27  H    Isotropic =    30.4143   Anisotropy =     8.4072

     28  H    Isotropic =    30.8920   Anisotropy =    10.1974

     29  H    Isotropic =    31.0412   Anisotropy =     7.5941

     30  H    Isotropic =    29.0414   Anisotropy =     7.5539

     31  H    Isotropic =    30.7323   Anisotropy =    10.6692

 The electronic state is 1-A.
 Alpha  occ. eigenvalues --  -19.24497 -10.29543 -10.25181 -10.25140 -10.25069
 Alpha  occ. eigenvalues --  -10.24290 -10.24130 -10.24071 -10.23518 -10.23131
 Alpha  occ. eigenvalues --  -10.22386  -1.05078  -0.86166  -0.82217  -0.76767
 Alpha  occ. eigenvalues --   -0.75423  -0.69807  -0.69541  -0.63226  -0.62012
 Alpha  occ. eigenvalues --   -0.57938  -0.57496  -0.51164  -0.48338  -0.46397
 Alpha  occ. eigenvalues --   -0.46238  -0.45021  -0.44099  -0.42678  -0.42080
 Alpha  occ. eigenvalues --   -0.40711  -0.39780  -0.38760  -0.38377  -0.37135
 Alpha  occ. eigenvalues --   -0.35532  -0.35264  -0.34946  -0.34081  -0.33111
 Alpha  occ. eigenvalues --   -0.32411  -0.31784  -0.30594  -0.27240
 Alpha virt. eigenvalues --    0.01128   0.01603   0.01943   0.02462   0.03804
 Alpha virt. eigenvalues --    0.04391   0.04898   0.05079   0.05869   0.06281
 Alpha virt. eigenvalues --    0.06658   0.07316   0.07785   0.08897   0.09355

 Mulliken atomic charges:
              1
     1  C    0.319177
     2  C   -0.085435
     3  C   -0.221801
     4  C   -0.333128
     5  C   -0.521476
     6  C   -0.514929
     7  C   -0.748101
     8  O   -0.488961
     9  C    0.567292
    10  C   -0.697706
    11  C   -0.732861
    12  H    0.159138
    13  H    0.158317
    14  H    0.166028
    15  H    0.167229
    16  H    0.148798
    17  H    0.161836
    18  H    0.158371
    19  H    0.155816
    20  H    0.175121
    21  H    0.161661
    22  H    0.165379
    23  H    0.164166
    24  H    0.359425
    25  H    0.153915
    26  H    0.167272
    27  H    0.166232
    28  H    0.163098
    29  H    0.156952
    30  H    0.193022
    31  H    0.156150
 Sum of Mulliken atomic charges =   0.00000

 Dipole moment (field-independent basis, Debye):
    X=             -0.9295    Y=             -1.3927    Z=              0.9644  Tot=              1.9323
 Quadrupole moment (field-independent basis, Debye-Ang):
   XX=            -73.3551   YY=            -76.6320   ZZ=            -69.8149
   XY=             -1.4206   XZ=              0.8698   YZ=              3.7988

 Normal termination of Gaussian 09 at Thu Sep 19 08:10:13 2024.
