 Gaussian 09, Revision C.01,
 Gaussian 09:  AM64L-G09RevC.01 23-Sep-2011

 --------------------------------------------------
 # mPW1PW91/6-31+G** nmr scrf=(pcm,solvent=benzene)
 --------------------------------------------------

 99/9=1/99;
 -------
 comment
 -------
 Charge =  0 Multiplicity = 1

                         Standard orientation:
 ---------------------------------------------------------------------
 Center     Atomic      Atomic             Coordinates (Angstroms)
 Number     Number       Type             X           Y           Z
 ---------------------------------------------------------------------
      1          6           0        2.242442   -0.273009    0.359605
      2          6           0        0.112388    1.146292    0.190722
      3          6           0       -0.047168   -1.372363    0.171034
      4          6           0       -0.680244   -0.064791   -0.349613
      5          6           0        1.445342   -1.474601   -0.175130
      6          6           0        1.607451    1.036121   -0.139980
      7          6           0        3.728684   -0.358263   -0.005954
      8          8           0       -0.416457    2.393988   -0.268275
      9          6           0       -2.208503    0.056832   -0.100402
     10          6           0       -2.613797   -0.085181    1.375991
     11          6           0       -3.008101   -0.922614   -0.974641
     12          1           0        2.162496   -0.284151    1.458658
     13          1           0       -0.003104    1.194042    1.280860
     14          1           0       -0.582418   -2.238198   -0.236877
     15          1           0       -0.160785   -1.425816    1.262784
     16          1           0       -0.541558   -0.053341   -1.446273
     17          1           0        1.566576   -1.526714   -1.268147
     18          1           0        1.860656   -2.408225    0.227536
     19          1           0        1.727953    1.095343   -1.235140
     20          1           0        2.127457    1.906368    0.279735
     21          1           0        3.866185   -0.352721   -1.095003
     22          1           0        4.290118    0.489365    0.404817
     23          1           0        4.180170   -1.279533    0.381402
     24          1           0       -0.302998    2.413210   -1.232911
     25          1           0       -2.477401    1.073716   -0.412854
     26          1           0       -2.428337   -1.097545    1.754659
     27          1           0       -2.077057    0.620320    2.019785
     28          1           0       -3.684978    0.115828    1.494998
     29          1           0       -2.814381   -1.967606   -0.702470
     30          1           0       -2.762428   -0.804497   -2.037426
     31          1           0       -4.085479   -0.752280   -0.861729
 ---------------------------------------------------------------------

 SCF Done:  E(RmPW1PW91) =  -468.285823360     A.U. after   12 cycles

      1  C    Isotropic =   161.4861   Anisotropy =    11.1094

      2  C    Isotropic =   123.5975   Anisotropy =    53.2174

      3  C    Isotropic =   170.8458   Anisotropy =    12.7608

      4  C    Isotropic =   142.2561   Anisotropy =    12.8838

      5  C    Isotropic =   159.9145   Anisotropy =    20.0260

      6  C    Isotropic =   149.1499   Anisotropy =    37.3793

      7  C    Isotropic =   172.9614   Anisotropy =    38.1501

      8  O    Isotropic =   273.0625   Anisotropy =    65.9984

      9  C    Isotropic =   167.8344   Anisotropy =    10.8838

     10  C    Isotropic =   179.7969   Anisotropy =    25.1134

     11  C    Isotropic =   173.7573   Anisotropy =    36.7786

     12  H    Isotropic =    30.0522   Anisotropy =     6.4426

     13  H    Isotropic =    28.1959   Anisotropy =     2.0420

     14  H    Isotropic =    29.9402   Anisotropy =     8.6460

     15  H    Isotropic =    30.4794   Anisotropy =     6.6980

     16  H    Isotropic =    30.7556   Anisotropy =     2.7714

     17  H    Isotropic =    30.7271   Anisotropy =     6.8554

     18  H    Isotropic =    29.9984   Anisotropy =     8.9519

     19  H    Isotropic =    31.0012   Anisotropy =     4.6850

     20  H    Isotropic =    29.5171   Anisotropy =     7.0261

     21  H    Isotropic =    30.9832   Anisotropy =     8.2918

     22  H    Isotropic =    30.5756   Anisotropy =    10.5544

     23  H    Isotropic =    30.5667   Anisotropy =    10.5670

     24  H    Isotropic =    31.7974   Anisotropy =    15.1155

     25  H    Isotropic =    29.0311   Anisotropy =     6.7141

     26  H    Isotropic =    31.0261   Anisotropy =     7.5706

     27  H    Isotropic =    30.5304   Anisotropy =     8.8777

     28  H    Isotropic =    30.8591   Anisotropy =    11.0344

     29  H    Isotropic =    30.6080   Anisotropy =     7.1565

     30  H    Isotropic =    30.8948   Anisotropy =    10.1683

     31  H    Isotropic =    30.5897   Anisotropy =    10.7243

 The electronic state is 1-A.
 Alpha  occ. eigenvalues --  -19.24577 -10.29364 -10.25274 -10.24854 -10.24689
 Alpha  occ. eigenvalues --  -10.24223 -10.24158 -10.24137 -10.23526 -10.23171
 Alpha  occ. eigenvalues --  -10.23005  -1.05096  -0.86208  -0.82233  -0.76665
 Alpha  occ. eigenvalues --   -0.75446  -0.70045  -0.69583  -0.63413  -0.62605
 Alpha  occ. eigenvalues --   -0.57967  -0.56737  -0.50523  -0.47892  -0.47445
 Alpha  occ. eigenvalues --   -0.46183  -0.45987  -0.43468  -0.42722  -0.41939
 Alpha  occ. eigenvalues --   -0.41058  -0.39587  -0.39136  -0.38312  -0.37667
 Alpha  occ. eigenvalues --   -0.35688  -0.35422  -0.34613  -0.33933  -0.33114
 Alpha  occ. eigenvalues --   -0.32305  -0.31895  -0.30242  -0.27669
 Alpha virt. eigenvalues --    0.01033   0.01457   0.01834   0.02394   0.03793
 Alpha virt. eigenvalues --    0.04364   0.04581   0.05115   0.05638   0.06314
 Alpha virt. eigenvalues --    0.06874   0.07441   0.07824   0.08761   0.09451

 Mulliken atomic charges:
              1
     1  C    0.319840
     2  C    0.050263
     3  C   -0.345644
     4  C   -0.304668
     5  C   -0.422432
     6  C   -0.527814
     7  C   -0.731700
     8  O   -0.501326
     9  C    0.277807
    10  C   -0.614877
    11  C   -0.626387
    12  H    0.159392
    13  H    0.153894
    14  H    0.159123
    15  H    0.167754
    16  H    0.145551
    17  H    0.161567
    18  H    0.157741
    19  H    0.155206
    20  H    0.172620
    21  H    0.162015
    22  H    0.165015
    23  H    0.164028
    24  H    0.355284
    25  H    0.174476
    26  H    0.162521
    27  H    0.161836
    28  H    0.165520
    29  H    0.159591
    30  H    0.159077
    31  H    0.164725
 Sum of Mulliken atomic charges =   0.00000

 Dipole moment (field-independent basis, Debye):
    X=              0.8325    Y=             -1.4666    Z=             -0.8920  Tot=              1.9078
 Quadrupole moment (field-independent basis, Debye-Ang):
   XX=            -72.5846   YY=            -77.7056   ZZ=            -69.0436
   XY=              1.3082   XZ=              0.8228   YZ=             -3.0168

 Normal termination of Gaussian 09 at Thu Sep 19 07:44:20 2024.
