 Gaussian 09, Revision C.01,
 Gaussian 09:  EM64L-G09RevC.01 23-Sep-2011

 --------------------------------------------------
 # mPW1PW91/6-31+G** nmr scrf=(pcm,solvent=benzene)
 --------------------------------------------------

 99/9=1/99;
 -------
 comment
 -------
 Charge =  0 Multiplicity = 1

                         Standard orientation:
 ---------------------------------------------------------------------
 Center     Atomic      Atomic             Coordinates (Angstroms)
 Number     Number       Type             X           Y           Z
 ---------------------------------------------------------------------
      1          6           0        2.244079   -0.252645    0.367161
      2          6           0        0.117559    1.146215    0.155574
      3          6           0       -0.044005   -1.366843    0.224891
      4          6           0       -0.669601   -0.082260   -0.356839
      5          6           0        1.450049   -1.479423   -0.112456
      6          6           0        1.605429    1.033337   -0.182625
      7          6           0        3.727998   -0.348848   -0.005306
      8          8           0       -0.333875    2.370349   -0.431613
      9          6           0       -2.203898    0.036300   -0.142113
     10          6           0       -2.638161    0.042145    1.333814
     11          6           0       -2.978235   -1.037450   -0.923923
     12          1           0        2.172454   -0.220746    1.466598
     13          1           0        0.017010    1.204008    1.253384
     14          1           0       -0.573231   -2.250532   -0.150977
     15          1           0       -0.163363   -1.376939    1.317798
     16          1           0       -0.513955   -0.099698   -1.447261
     17          1           0        1.570809   -1.579676   -1.201903
     18          1           0        1.867485   -2.393051    0.331887
     19          1           0        1.710614    1.060995   -1.277140
     20          1           0        2.122799    1.919772    0.204727
     21          1           0        3.857396   -0.385078   -1.094635
     22          1           0        4.289712    0.515923    0.367540
     23          1           0        4.185004   -1.253063    0.414630
     24          1           0       -1.213659    2.564999   -0.076118
     25          1           0       -2.497003    1.002648   -0.579404
     26          1           0       -2.427028   -0.917853    1.819005
     27          1           0       -2.134586    0.823087    1.915927
     28          1           0       -3.717459    0.217594    1.414462
     29          1           0       -2.800402   -2.041718   -0.521354
     30          1           0       -2.691175   -1.044407   -1.982150
     31          1           0       -4.057699   -0.852236   -0.871192
 ---------------------------------------------------------------------

 SCF Done:  E(RmPW1PW91) =  -468.285404318     A.U. after   12 cycles

      1  C    Isotropic =   161.9297   Anisotropy =     9.8208

      2  C    Isotropic =   123.4134   Anisotropy =    52.1474

      3  C    Isotropic =   171.7213   Anisotropy =    12.9556

      4  C    Isotropic =   144.1552   Anisotropy =    10.6411

      5  C    Isotropic =   159.8537   Anisotropy =    20.2587

      6  C    Isotropic =   152.8420   Anisotropy =    32.3055

      7  C    Isotropic =   172.9735   Anisotropy =    38.1587

      8  O    Isotropic =   287.4326   Anisotropy =    32.0233

      9  C    Isotropic =   167.4933   Anisotropy =    10.4532

     10  C    Isotropic =   180.8022   Anisotropy =    25.3085

     11  C    Isotropic =   173.9042   Anisotropy =    36.4590

     12  H    Isotropic =    30.1010   Anisotropy =     6.5377

     13  H    Isotropic =    28.0586   Anisotropy =     1.9003

     14  H    Isotropic =    29.9799   Anisotropy =     8.7807

     15  H    Isotropic =    30.5908   Anisotropy =     6.6639

     16  H    Isotropic =    30.4227   Anisotropy =     3.3152

     17  H    Isotropic =    30.6681   Anisotropy =     6.9597

     18  H    Isotropic =    30.0159   Anisotropy =     8.9812

     19  H    Isotropic =    30.5847   Anisotropy =     5.1053

     20  H    Isotropic =    29.6262   Anisotropy =     7.4948

     21  H    Isotropic =    30.9234   Anisotropy =     8.3701

     22  H    Isotropic =    30.5534   Anisotropy =    10.5837

     23  H    Isotropic =    30.5818   Anisotropy =    10.5515

     24  H    Isotropic =    30.0384   Anisotropy =    17.1424

     25  H    Isotropic =    29.6443   Anisotropy =     6.5247

     26  H    Isotropic =    30.9705   Anisotropy =     7.6185

     27  H    Isotropic =    30.6490   Anisotropy =     8.9234

     28  H    Isotropic =    30.8653   Anisotropy =    10.9525

     29  H    Isotropic =    30.5772   Anisotropy =     7.1766

     30  H    Isotropic =    30.7758   Anisotropy =    10.2241

     31  H    Isotropic =    30.5564   Anisotropy =    10.7088

 The electronic state is 1-A.
 Alpha  occ. eigenvalues --  -19.24626 -10.29431 -10.25543 -10.25041 -10.24705
 Alpha  occ. eigenvalues --  -10.24177 -10.23997 -10.23705 -10.23669 -10.23492
 Alpha  occ. eigenvalues --  -10.23314  -1.05120  -0.86207  -0.82476  -0.76747
 Alpha  occ. eigenvalues --   -0.75581  -0.70561  -0.69465  -0.63189  -0.62013
 Alpha  occ. eigenvalues --   -0.58073  -0.56121  -0.52438  -0.48667  -0.47235
 Alpha  occ. eigenvalues --   -0.46130  -0.45750  -0.43691  -0.42531  -0.41766
 Alpha  occ. eigenvalues --   -0.41161  -0.39574  -0.39230  -0.38527  -0.37280
 Alpha  occ. eigenvalues --   -0.35728  -0.35344  -0.34511  -0.34130  -0.33307
 Alpha  occ. eigenvalues --   -0.32527  -0.31446  -0.30531  -0.27942
 Alpha virt. eigenvalues --    0.00535   0.01525   0.01983   0.02486   0.03851
 Alpha virt. eigenvalues --    0.04163   0.04425   0.05372   0.05580   0.06513
 Alpha virt. eigenvalues --    0.07200   0.07644   0.07851   0.08332   0.09265

 Mulliken atomic charges:
              1
     1  C    0.289411
     2  C    0.093662
     3  C   -0.353191
     4  C   -0.313854
     5  C   -0.418656
     6  C   -0.524852
     7  C   -0.718630
     8  O   -0.507696
     9  C    0.304035
    10  C   -0.558281
    11  C   -0.713085
    12  H    0.156957
    13  H    0.140539
    14  H    0.158295
    15  H    0.164844
    16  H    0.162244
    17  H    0.163492
    18  H    0.156604
    19  H    0.173190
    20  H    0.167304
    21  H    0.163565
    22  H    0.164427
    23  H    0.162571
    24  H    0.361846
    25  H    0.139716
    26  H    0.168664
    27  H    0.155151
    28  H    0.168179
    29  H    0.162445
    30  H    0.165609
    31  H    0.165496
 Sum of Mulliken atomic charges =   0.00000

 Dipole moment (field-independent basis, Debye):
    X=             -0.9205    Y=             -1.2967    Z=              1.1590  Tot=              1.9678
 Quadrupole moment (field-independent basis, Debye-Ang):
   XX=            -69.2403   YY=            -75.9768   ZZ=            -72.5150
   XY=             -2.9485   XZ=              0.0399   YZ=              2.9728

 Normal termination of Gaussian 09 at Thu Sep 19 07:53:50 2024.
