 Gaussian 09, Revision C.01,
 Gaussian 09:  AM64L-G09RevC.01 23-Sep-2011

 --------------------------------------------------
 # mPW1PW91/6-31+G** nmr scrf=(pcm,solvent=benzene)
 --------------------------------------------------

 99/9=1/99;
 -------
 comment
 -------
 Charge =  0 Multiplicity = 1

                         Standard orientation:
 ---------------------------------------------------------------------
 Center     Atomic      Atomic             Coordinates (Angstroms)
 Number     Number       Type             X           Y           Z
 ---------------------------------------------------------------------
      1          6           0        2.294658   -0.091459    0.326816
      2          6           0       -0.075259    0.884852    0.336052
      3          6           0        0.264374   -1.573834   -0.086919
      4          6           0       -0.627292   -0.351712   -0.404332
      5          6           0        1.747117   -1.330567   -0.399872
      6          6           0        1.406656    1.124300    0.013365
      7          6           0        3.765030    0.174837   -0.014993
      8          8           0       -0.837411    2.074206    0.100974
      9          6           0       -2.132112   -0.664639   -0.147714
     10          6           0       -3.080455    0.199529   -0.996310
     11          6           0       -2.532224   -0.598430    1.335699
     12          1           0        2.227560   -0.282800    1.410061
     13          1           0       -0.171872    0.720024    1.416097
     14          1           0       -0.099005   -2.441276   -0.652827
     15          1           0        0.159164   -1.835166    0.976266
     16          1           0       -0.518305   -0.151061   -1.485077
     17          1           0        1.872973   -1.191497   -1.484890
     18          1           0        2.337903   -2.216365   -0.130654
     19          1           0        1.499824    1.368419   -1.058410
     20          1           0        1.746086    2.008263    0.567561
     21          1           0        3.889533    0.372634   -1.087595
     22          1           0        4.150306    1.044468    0.530585
     23          1           0        4.394175   -0.686720    0.239090
     24          1           0       -0.783194    2.266026   -0.849466
     25          1           0       -2.274993   -1.705516   -0.476720
     26          1           0       -3.029466    1.249621   -0.695241
     27          1           0       -2.830654    0.133907   -2.063218
     28          1           0       -4.117805   -0.137896   -0.880209
     29          1           0       -2.501123    0.431679    1.706987
     30          1           0       -1.878894   -1.209945    1.969422
     31          1           0       -3.555887   -0.967709    1.469679
 ---------------------------------------------------------------------

 SCF Done:  E(RmPW1PW91) =  -468.284008678     A.U. after   12 cycles

      1  C    Isotropic =   161.6641   Anisotropy =    10.0101

      2  C    Isotropic =   122.2097   Anisotropy =    55.8276

      3  C    Isotropic =   162.3138   Anisotropy =    23.1756

      4  C    Isotropic =   143.6694   Anisotropy =    14.4024

      5  C    Isotropic =   160.1142   Anisotropy =    20.7134

      6  C    Isotropic =   148.8778   Anisotropy =    38.4635

      7  C    Isotropic =   173.1335   Anisotropy =    37.9863

      8  O    Isotropic =   264.7257   Anisotropy =    44.1518

      9  C    Isotropic =   158.5457   Anisotropy =    21.7721

     10  C    Isotropic =   170.5979   Anisotropy =    36.7872

     11  C    Isotropic =   179.2362   Anisotropy =    23.3737

     12  H    Isotropic =    30.1036   Anisotropy =     6.4877

     13  H    Isotropic =    28.0581   Anisotropy =     2.1111

     14  H    Isotropic =    30.2072   Anisotropy =     8.6953

     15  H    Isotropic =    30.2000   Anisotropy =     6.0161

     16  H    Isotropic =    30.6557   Anisotropy =     3.4037

     17  H    Isotropic =    30.6531   Anisotropy =     6.8187

     18  H    Isotropic =    30.0338   Anisotropy =     9.1112

     19  H    Isotropic =    30.9403   Anisotropy =     4.5283

     20  H    Isotropic =    29.6320   Anisotropy =     6.6770

     21  H    Isotropic =    30.9923   Anisotropy =     8.3338

     22  H    Isotropic =    30.5847   Anisotropy =    10.5020

     23  H    Isotropic =    30.5543   Anisotropy =    10.6520

     24  H    Isotropic =    31.6840   Anisotropy =    13.4063

     25  H    Isotropic =    30.1245   Anisotropy =     6.7415

     26  H    Isotropic =    29.9074   Anisotropy =     5.6310

     27  H    Isotropic =    30.6370   Anisotropy =     9.1336

     28  H    Isotropic =    30.6233   Anisotropy =    11.0701

     29  H    Isotropic =    30.4863   Anisotropy =     7.1265

     30  H    Isotropic =    30.5543   Anisotropy =     8.6065

     31  H    Isotropic =    30.7640   Anisotropy =    10.8905

 The electronic state is 1-A.
 Alpha  occ. eigenvalues --  -19.24441 -10.29349 -10.25249 -10.24990 -10.24925
 Alpha  occ. eigenvalues --  -10.24331 -10.24163 -10.24048 -10.23513 -10.22916
 Alpha  occ. eigenvalues --  -10.22702  -1.04965  -0.86196  -0.82164  -0.76799
 Alpha  occ. eigenvalues --   -0.75382  -0.69846  -0.69557  -0.63527  -0.61936
 Alpha  occ. eigenvalues --   -0.57831  -0.57478  -0.50169  -0.48005  -0.47777
 Alpha  occ. eigenvalues --   -0.46227  -0.45504  -0.42878  -0.42839  -0.42047
 Alpha  occ. eigenvalues --   -0.40944  -0.39377  -0.38889  -0.38064  -0.37675
 Alpha  occ. eigenvalues --   -0.36048  -0.35501  -0.34804  -0.33470  -0.33161
 Alpha  occ. eigenvalues --   -0.32277  -0.31701  -0.30678  -0.27296
 Alpha virt. eigenvalues --    0.01067   0.01623   0.01862   0.02368   0.03816
 Alpha virt. eigenvalues --    0.04394   0.04586   0.05186   0.05661   0.06261
 Alpha virt. eigenvalues --    0.06644   0.07445   0.08136   0.08663   0.09293

 Mulliken atomic charges:
              1
     1  C    0.311902
     2  C   -0.133774
     3  C   -0.321924
     4  C   -0.209636
     5  C   -0.432883
     6  C   -0.482750
     7  C   -0.733920
     8  O   -0.486476
     9  C    0.451172
    10  C   -0.715614
    11  C   -0.674003
    12  H    0.159615
    13  H    0.160827
    14  H    0.159636
    15  H    0.163713
    16  H    0.145669
    17  H    0.161634
    18  H    0.158212
    19  H    0.156691
    20  H    0.173359
    21  H    0.161995
    22  H    0.165159
    23  H    0.163742
    24  H    0.354960
    25  H    0.142459
    26  H    0.184140
    27  H    0.155460
    28  H    0.159181
    29  H    0.180469
    30  H    0.158190
    31  H    0.162795
 Sum of Mulliken atomic charges =   0.00000

 Dipole moment (field-independent basis, Debye):
    X=              1.0731    Y=             -1.2643    Z=             -1.0904  Tot=              1.9847
 Quadrupole moment (field-independent basis, Debye-Ang):
   XX=            -73.5504   YY=            -75.1239   ZZ=            -70.2384
   XY=              2.0216   XZ=              1.5977   YZ=             -3.3797

 Normal termination of Gaussian 09 at Thu Sep 19 08:00:37 2024.
