 Gaussian 09, Revision C.01,
 Gaussian 09:  EM64L-G09RevC.01 23-Sep-2011

 --------------------------------------------------
 # mPW1PW91/6-31+G** nmr scrf=(pcm,solvent=benzene)
 --------------------------------------------------

 99/9=1/99;
 -------
 comment
 -------
 Charge =  0 Multiplicity = 1

                         Standard orientation:
 ---------------------------------------------------------------------
 Center     Atomic      Atomic             Coordinates (Angstroms)
 Number     Number       Type             X           Y           Z
 ---------------------------------------------------------------------
      1          6           0       -2.043445   -0.281750   -0.066522
      2          6           0       -0.079987    1.371281   -0.077089
      3          6           0       -0.007864   -0.641926    1.417381
      4          6           0        0.856923    0.317252    0.569248
      5          6           0       -1.116917   -1.317640    0.595611
      6          6           0       -1.218661    0.732220   -0.879971
      7          6           0       -3.118727   -0.945827   -0.933430
      8          8           0       -0.704085    2.183442    0.928312
      9          6           0        1.790342   -0.387623   -0.459504
     10          6           0        2.600338   -1.531392    0.176608
     11          6           0        2.762098    0.603931   -1.126229
     12          1           0       -2.544311    0.275747    0.736855
     13          1           0        0.497284    2.024208   -0.747286
     14          1           0       -0.475527   -0.052759    2.215311
     15          1           0        0.618105   -1.391806    1.911602
     16          1           0        1.525204    0.862866    1.259088
     17          1           0       -1.706158   -1.981479    1.242526
     18          1           0       -0.675820   -1.960466   -0.181582
     19          1           0       -1.868719    1.533539   -1.252925
     20          1           0       -0.791942    0.236558   -1.763434
     21          1           0       -3.793665   -0.201060   -1.372646
     22          1           0       -2.667035   -1.512195   -1.758940
     23          1           0       -3.728018   -1.644196   -0.346706
     24          1           0        0.002220    2.571990    1.468127
     25          1           0        1.169603   -0.828797   -1.252025
     26          1           0        3.183704   -1.172530    1.035129
     27          1           0        1.964856   -2.351576    0.524073
     28          1           0        3.306725   -1.949873   -0.550018
     29          1           0        3.393729    1.095475   -0.373938
     30          1           0        2.250111    1.387119   -1.693921
     31          1           0        3.427732    0.080541   -1.822403
 ---------------------------------------------------------------------

 SCF Done:  E(RmPW1PW91) =  -468.281787692     A.U. after   12 cycles

      1  C    Isotropic =   167.1492   Anisotropy =    13.7046

      2  C    Isotropic =   125.5121   Anisotropy =    51.6137

      3  C    Isotropic =   171.6739   Anisotropy =    20.0829

      4  C    Isotropic =   144.2872   Anisotropy =    27.8044

      5  C    Isotropic =   165.2946   Anisotropy =    25.0418

      6  C    Isotropic =   159.4877   Anisotropy =    25.6205

      7  C    Isotropic =   172.5726   Anisotropy =    38.6067

      8  O    Isotropic =   276.6847   Anisotropy =   103.8164

      9  C    Isotropic =   166.5252   Anisotropy =    13.7593

     10  C    Isotropic =   174.3989   Anisotropy =    30.3861

     11  C    Isotropic =   174.1763   Anisotropy =    33.9204

     12  H    Isotropic =    29.4939   Anisotropy =     6.3845

     13  H    Isotropic =    27.3787   Anisotropy =     6.2010

     14  H    Isotropic =    29.5472   Anisotropy =     7.7462

     15  H    Isotropic =    30.0325   Anisotropy =     8.2291

     16  H    Isotropic =    30.8113   Anisotropy =     5.4178

     17  H    Isotropic =    30.2943   Anisotropy =     9.6601

     18  H    Isotropic =    30.5081   Anisotropy =     4.9655

     19  H    Isotropic =    29.8409   Anisotropy =     8.6454

     20  H    Isotropic =    30.3854   Anisotropy =     5.0215

     21  H    Isotropic =    30.6388   Anisotropy =    10.8276

     22  H    Isotropic =    31.0349   Anisotropy =     7.9894

     23  H    Isotropic =    30.6091   Anisotropy =    10.7338

     24  H    Isotropic =    31.3305   Anisotropy =    17.5797

     25  H    Isotropic =    29.8047   Anisotropy =     5.7433

     26  H    Isotropic =    31.0416   Anisotropy =     8.8659

     27  H    Isotropic =    30.2122   Anisotropy =     8.2459

     28  H    Isotropic =    30.7807   Anisotropy =    10.3846

     29  H    Isotropic =    31.0818   Anisotropy =     8.7414

     30  H    Isotropic =    30.2848   Anisotropy =     8.7181

     31  H    Isotropic =    30.7006   Anisotropy =    10.5868

 The electronic state is 1-A.
 Alpha  occ. eigenvalues --  -19.24387 -10.29389 -10.25526 -10.25058 -10.24369
 Alpha  occ. eigenvalues --  -10.23728 -10.23621 -10.23577 -10.23565 -10.23473
 Alpha  occ. eigenvalues --  -10.23032  -1.04901  -0.85891  -0.82030  -0.76545
 Alpha  occ. eigenvalues --   -0.75547  -0.70316  -0.69396  -0.62469  -0.61994
 Alpha  occ. eigenvalues --   -0.58768  -0.55387  -0.50873  -0.50419  -0.46965
 Alpha  occ. eigenvalues --   -0.45874  -0.44759  -0.43535  -0.42909  -0.40514
 Alpha  occ. eigenvalues --   -0.40191  -0.39419  -0.38950  -0.38604  -0.37672
 Alpha  occ. eigenvalues --   -0.36979  -0.35703  -0.34383  -0.33867  -0.33344
 Alpha  occ. eigenvalues --   -0.31373  -0.30961  -0.30363  -0.27504
 Alpha virt. eigenvalues --    0.00657   0.01809   0.02017   0.02335   0.03893
 Alpha virt. eigenvalues --    0.04395   0.04597   0.05085   0.05177   0.06687
 Alpha virt. eigenvalues --    0.07398   0.07429   0.07972   0.08620   0.08899

 Mulliken atomic charges:
              1
     1  C    0.258479
     2  C    0.131804
     3  C   -0.393483
     4  C   -0.286137
     5  C   -0.324612
     6  C   -0.441768
     7  C   -0.723687
     8  O   -0.524933
     9  C    0.263236
    10  C   -0.672578
    11  C   -0.671516
    12  H    0.175022
    13  H    0.124410
    14  H    0.174779
    15  H    0.152468
    16  H    0.137886
    17  H    0.155854
    18  H    0.155686
    19  H    0.170559
    20  H    0.160822
    21  H    0.163097
    22  H    0.158963
    23  H    0.161602
    24  H    0.353147
    25  H    0.156390
    26  H    0.167801
    27  H    0.164298
    28  H    0.163322
    29  H    0.166158
    30  H    0.157107
    31  H    0.165823
 Sum of Mulliken atomic charges =   0.00000

 Dipole moment (field-independent basis, Debye):
    X=              1.7375    Y=             -0.4143    Z=             -0.1284  Tot=              1.7908
 Quadrupole moment (field-independent basis, Debye-Ang):
   XX=            -73.4270   YY=            -73.0840   ZZ=            -70.6790
   XY=              3.9296   XZ=              1.5693   YZ=              0.6640

 Normal termination of Gaussian 09 at Thu Sep 19 09:03:57 2024.
