 Gaussian 09, Revision C.01,
 Gaussian 09:  AM64L-G09RevC.01 23-Sep-2011

 --------------------------------------------------
 # mPW1PW91/6-31+G** nmr scrf=(pcm,solvent=benzene)
 --------------------------------------------------

 99/9=1/99;
 -------
 comment
 -------
 Charge =  0 Multiplicity = 1

                         Standard orientation:
 ---------------------------------------------------------------------
 Center     Atomic      Atomic             Coordinates (Angstroms)
 Number     Number       Type             X           Y           Z
 ---------------------------------------------------------------------
      1          6           0        2.424880    0.100802   -0.282168
      2          6           0        0.017593    0.925348    0.150430
      3          6           0        0.424311   -1.505048   -0.315190
      4          6           0       -0.574727   -0.339169   -0.491906
      5          6           0        1.818730   -1.186398   -0.876923
      6          6           0        1.406045    1.250076   -0.423651
      7          6           0        2.914105   -0.089226    1.164006
      8          8           0       -0.880432    2.017381   -0.080352
      9          6           0       -1.998692   -0.733434    0.005270
     10          6           0       -3.118022    0.021725   -0.730864
     11          6           0       -2.178045   -0.611531    1.527704
     12          1           0        3.305986    0.366379   -0.883353
     13          1           0        0.108183    0.755794    1.235273
     14          1           0        0.024366   -2.395064   -0.817550
     15          1           0        0.498838   -1.768043    0.749500
     16          1           0       -0.651750   -0.133684   -1.571227
     17          1           0        1.737647   -1.066208   -1.966873
     18          1           0        2.496092   -2.034062   -0.707600
     19          1           0        1.272859    1.496042   -1.486112
     20          1           0        1.795279    2.158020    0.062809
     21          1           0        3.356860    0.836281    1.551919
     22          1           0        2.108137   -0.378987    1.847183
     23          1           0        3.681593   -0.870978    1.212969
     24          1           0       -0.477743    2.809924    0.308454
     25          1           0       -2.114571   -1.798561   -0.248639
     26          1           0       -3.067928    1.094196   -0.527017
     27          1           0       -3.041035   -0.119313   -1.816085
     28          1           0       -4.102658   -0.347635   -0.416958
     29          1           0       -2.167831    0.438480    1.840657
     30          1           0       -1.394976   -1.142260    2.082866
     31          1           0       -3.140952   -1.038240    1.832357
 ---------------------------------------------------------------------

 SCF Done:  E(RmPW1PW91) =  -468.280732414     A.U. after   12 cycles

      1  C    Isotropic =   163.5680   Anisotropy =     4.1599

      2  C    Isotropic =   126.5966   Anisotropy =    59.8944

      3  C    Isotropic =   166.7892   Anisotropy =    27.7904

      4  C    Isotropic =   145.8127   Anisotropy =    12.5164

      5  C    Isotropic =   162.6278   Anisotropy =    11.8691

      6  C    Isotropic =   151.3185   Anisotropy =    26.7434

      7  C    Isotropic =   176.4873   Anisotropy =    30.2106

      8  O    Isotropic =   276.1124   Anisotropy =    74.0315

      9  C    Isotropic =   158.2136   Anisotropy =    23.2690

     10  C    Isotropic =   170.4587   Anisotropy =    36.7507

     11  C    Isotropic =   178.5264   Anisotropy =    23.7306

     12  H    Isotropic =    29.6499   Anisotropy =    10.0550

     13  H    Isotropic =    27.6083   Anisotropy =     3.3557

     14  H    Isotropic =    30.3941   Anisotropy =     9.1449

     15  H    Isotropic =    29.9878   Anisotropy =     4.9778

     16  H    Isotropic =    30.2531   Anisotropy =     3.9309

     17  H    Isotropic =    29.9887   Anisotropy =     8.9576

     18  H    Isotropic =    30.1701   Anisotropy =     9.8116

     19  H    Isotropic =    30.0165   Anisotropy =     6.4024

     20  H    Isotropic =    30.1676   Anisotropy =     6.8340

     21  H    Isotropic =    30.7291   Anisotropy =    10.1582

     22  H    Isotropic =    30.2290   Anisotropy =     5.4317

     23  H    Isotropic =    30.7811   Anisotropy =    11.0237

     24  H    Isotropic =    31.2182   Anisotropy =    18.5151

     25  H    Isotropic =    30.1395   Anisotropy =     6.5274

     26  H    Isotropic =    29.7630   Anisotropy =     5.7408

     27  H    Isotropic =    30.5364   Anisotropy =     9.4238

     28  H    Isotropic =    30.7578   Anisotropy =    11.0739

     29  H    Isotropic =    30.5044   Anisotropy =     6.9105

     30  H    Isotropic =    30.5246   Anisotropy =     8.3027

     31  H    Isotropic =    30.7648   Anisotropy =    10.8410

 The electronic state is 1-A.
 Alpha  occ. eigenvalues --  -19.24445 -10.29340 -10.25323 -10.24619 -10.24523
 Alpha  occ. eigenvalues --  -10.24148 -10.24087 -10.24056 -10.23533 -10.22783
 Alpha  occ. eigenvalues --  -10.22036  -1.04971  -0.86066  -0.81856  -0.76339
 Alpha  occ. eigenvalues --   -0.75223  -0.69868  -0.69469  -0.63405  -0.62427
 Alpha  occ. eigenvalues --   -0.56736  -0.55176  -0.52538  -0.48448  -0.47317
 Alpha  occ. eigenvalues --   -0.46001  -0.45103  -0.44167  -0.42251  -0.40611
 Alpha  occ. eigenvalues --   -0.40314  -0.39542  -0.39099  -0.38245  -0.37362
 Alpha  occ. eigenvalues --   -0.36070  -0.35350  -0.34443  -0.33278  -0.32286
 Alpha  occ. eigenvalues --   -0.31961  -0.31202  -0.30035  -0.27857
 Alpha virt. eigenvalues --    0.00679   0.01444   0.01837   0.02408   0.03769
 Alpha virt. eigenvalues --    0.04380   0.04546   0.05000   0.05838   0.06518
 Alpha virt. eigenvalues --    0.07131   0.07862   0.08206   0.08658   0.09014

 Mulliken atomic charges:
              1
     1  C    0.207105
     2  C   -0.151916
     3  C   -0.302815
     4  C    0.003864
     5  C   -0.494955
     6  C   -0.428309
     7  C   -0.693601
     8  O   -0.503718
     9  C    0.281406
    10  C   -0.666501
    11  C   -0.672477
    12  H    0.155588
    13  H    0.149577
    14  H    0.160071
    15  H    0.162924
    16  H    0.155951
    17  H    0.163678
    18  H    0.156929
    19  H    0.178875
    20  H    0.149417
    21  H    0.162858
    22  H    0.163355
    23  H    0.165585
    24  H    0.363464
    25  H    0.140389
    26  H    0.191762
    27  H    0.154022
    28  H    0.151824
    29  H    0.176105
    30  H    0.157449
    31  H    0.162094
 Sum of Mulliken atomic charges =   0.00000

 Dipole moment (field-independent basis, Debye):
    X=              1.9193    Y=             -0.0059    Z=              0.6449  Tot=              2.0247
 Quadrupole moment (field-independent basis, Debye-Ang):
   XX=            -74.2302   YY=            -68.9727   ZZ=            -72.3236
   XY=              3.0598   XZ=             -0.8407   YZ=              2.7056

 Normal termination of Gaussian 09 at Thu Sep 19 08:36:27 2024.
