 Gaussian 09, Revision C.01,
 Gaussian 09:  AM64L-G09RevC.01 23-Sep-2011

 --------------------------------------------------
 # mPW1PW91/6-31+G** nmr scrf=(pcm,solvent=benzene)
 --------------------------------------------------

 99/9=1/99;
 -------
 comment
 -------
 Charge =  0 Multiplicity = 1

                         Standard orientation:
 ---------------------------------------------------------------------
 Center     Atomic      Atomic             Coordinates (Angstroms)
 Number     Number       Type             X           Y           Z
 ---------------------------------------------------------------------
      1          6           0        2.374704   -0.301694   -0.279986
      2          6           0        0.259535    1.134622    0.086119
      3          6           0        0.046046   -1.369559   -0.172964
      4          6           0       -0.634881   -0.010377   -0.439911
      5          6           0        1.457903   -1.438747   -0.776710
      6          6           0        1.676905    1.055845   -0.503015
      7          6           0        2.826340   -0.497959    1.177274
      8          8           0       -0.309418    2.425366   -0.155529
      9          6           0       -2.099054    0.088889    0.069833
     10          6           0       -2.258912   -0.206934    1.570294
     11          6           0       -3.051831   -0.790551   -0.755797
     12          1           0        3.283993   -0.309959   -0.897844
     13          1           0        0.316083    1.075900    1.179241
     14          1           0       -0.564626   -2.182550   -0.584031
     15          1           0        0.100772   -1.547686    0.908749
     16          1           0       -0.677670    0.118994   -1.537067
     17          1           0        1.377858   -1.375851   -1.871784
     18          1           0        1.914456   -2.412528   -0.554796
     19          1           0        1.597912    1.238425   -1.587176
     20          1           0        2.277333    1.876183   -0.090521
     21          1           0        3.499170    0.310006    1.488466
     22          1           0        1.986409   -0.512753    1.880595
     23          1           0        3.366719   -1.445325    1.291755
     24          1           0       -0.342429    2.546030   -1.119052
     25          1           0       -2.394344    1.133841   -0.087376
     26          1           0       -2.031823   -1.253635    1.806408
     27          1           0       -1.611003    0.426673    2.185992
     28          1           0       -3.292047   -0.019014    1.885563
     29          1           0       -2.849239   -1.859317   -0.613974
     30          1           0       -2.969079   -0.575181   -1.828465
     31          1           0       -4.093633   -0.616385   -0.461274
 ---------------------------------------------------------------------

 SCF Done:  E(RmPW1PW91) =  -468.282464327     A.U. after   12 cycles

      1  C    Isotropic =   163.2430   Anisotropy =     5.1494

      2  C    Isotropic =   127.4542   Anisotropy =    58.0909

      3  C    Isotropic =   175.3642   Anisotropy =    13.0749

      4  C    Isotropic =   140.8734   Anisotropy =    11.9487

      5  C    Isotropic =   162.5878   Anisotropy =    12.3912

      6  C    Isotropic =   151.6391   Anisotropy =    27.0184

      7  C    Isotropic =   176.6965   Anisotropy =    30.1692

      8  O    Isotropic =   273.5818   Anisotropy =    66.4139

      9  C    Isotropic =   167.6947   Anisotropy =     9.9822

     10  C    Isotropic =   180.1329   Anisotropy =    25.1784

     11  C    Isotropic =   173.9625   Anisotropy =    36.6864

     12  H    Isotropic =    29.6092   Anisotropy =    10.0535

     13  H    Isotropic =    27.9325   Anisotropy =     2.0019

     14  H    Isotropic =    30.1766   Anisotropy =     9.0029

     15  H    Isotropic =    30.2065   Anisotropy =     5.4686

     16  H    Isotropic =    30.7668   Anisotropy =     2.8235

     17  H    Isotropic =    30.1072   Anisotropy =     8.7765

     18  H    Isotropic =    30.1173   Anisotropy =     9.6760

     19  H    Isotropic =    30.5159   Anisotropy =     6.4400

     20  H    Isotropic =    29.6470   Anisotropy =     7.3384

     21  H    Isotropic =    30.6372   Anisotropy =    10.3653

     22  H    Isotropic =    30.2621   Anisotropy =     5.3547

     23  H    Isotropic =    30.7934   Anisotropy =    11.0042

     24  H    Isotropic =    31.9337   Anisotropy =    15.3215

     25  H    Isotropic =    28.9923   Anisotropy =     6.7827

     26  H    Isotropic =    30.9856   Anisotropy =     7.3742

     27  H    Isotropic =    30.4539   Anisotropy =     8.6904

     28  H    Isotropic =    30.7991   Anisotropy =    11.0255

     29  H    Isotropic =    30.5915   Anisotropy =     7.1810

     30  H    Isotropic =    30.8878   Anisotropy =    10.2338

     31  H    Isotropic =    30.5599   Anisotropy =    10.7451

 The electronic state is 1-A.
 Alpha  occ. eigenvalues --  -19.24549 -10.29308 -10.25330 -10.24820 -10.24654
 Alpha  occ. eigenvalues --  -10.24180 -10.24162 -10.24151 -10.23450 -10.23151
 Alpha  occ. eigenvalues --  -10.23002  -1.05062  -0.86130  -0.82114  -0.76334
 Alpha  occ. eigenvalues --   -0.75319  -0.70051  -0.69864  -0.63657  -0.63166
 Alpha  occ. eigenvalues --   -0.56954  -0.56193  -0.51305  -0.47412  -0.47076
 Alpha  occ. eigenvalues --   -0.45983  -0.45381  -0.44946  -0.42658  -0.42191
 Alpha  occ. eigenvalues --   -0.40570  -0.40067  -0.39056  -0.38285  -0.37467
 Alpha  occ. eigenvalues --   -0.35847  -0.35408  -0.34286  -0.33705  -0.33428
 Alpha  occ. eigenvalues --   -0.32209  -0.31669  -0.30131  -0.27549
 Alpha virt. eigenvalues --    0.00752   0.01534   0.01719   0.02279   0.03947
 Alpha virt. eigenvalues --    0.04368   0.04597   0.04875   0.05272   0.06592
 Alpha virt. eigenvalues --    0.07248   0.07563   0.08151   0.08244   0.09206

 Mulliken atomic charges:
              1
     1  C    0.222625
     2  C   -0.098603
     3  C   -0.278953
     4  C   -0.173338
     5  C   -0.508457
     6  C   -0.402590
     7  C   -0.678894
     8  O   -0.491167
     9  C    0.210053
    10  C   -0.604774
    11  C   -0.617505
    12  H    0.155281
    13  H    0.154718
    14  H    0.159653
    15  H    0.167042
    16  H    0.143608
    17  H    0.161850
    18  H    0.157614
    19  H    0.153886
    20  H    0.173841
    21  H    0.165793
    22  H    0.162604
    23  H    0.164950
    24  H    0.353391
    25  H    0.174808
    26  H    0.162310
    27  H    0.161438
    28  H    0.165614
    29  H    0.159832
    30  H    0.158436
    31  H    0.164938
 Sum of Mulliken atomic charges =   0.00000

 Dipole moment (field-independent basis, Debye):
    X=              0.7499    Y=             -1.3627    Z=             -1.2872  Tot=              2.0189
 Quadrupole moment (field-independent basis, Debye-Ang):
   XX=            -71.4220   YY=            -77.0647   ZZ=            -69.7660
   XY=              0.4848   XZ=              0.4002   YZ=             -3.6034

 Normal termination of Gaussian 09 at Thu Sep 19 08:19:27 2024.
