 Gaussian 09, Revision C.01,
 Gaussian 09:  AM64L-G09RevC.01 23-Sep-2011

 --------------------------------------------------
 # mPW1PW91/6-31+G** nmr scrf=(pcm,solvent=benzene)
 --------------------------------------------------

 99/9=1/99;
 -------
 comment
 -------
 Charge =  0 Multiplicity = 1

                         Standard orientation:
 ---------------------------------------------------------------------
 Center     Atomic      Atomic             Coordinates (Angstroms)
 Number     Number       Type             X           Y           Z
 ---------------------------------------------------------------------
      1          6           0       -2.047762   -0.048158    0.001717
      2          6           0        0.173263    1.135606   -0.496527
      3          6           0       -0.125570   -0.185257    1.664414
      4          6           0        0.898248    0.376036    0.645406
      5          6           0       -1.331277   -0.914209    1.050959
      6          6           0       -1.044724    0.402685   -1.073386
      7          6           0       -3.244287   -0.776815   -0.619056
      8          8           0       -0.335633    2.389489   -0.013375
      9          6           0        2.009335   -0.627237    0.202318
     10          6           0        3.246467    0.115914   -0.336110
     11          6           0        1.605717   -1.732895   -0.787981
     12          1           0       -2.416195    0.855498    0.506422
     13          1           0        0.884305    1.329552   -1.315515
     14          1           0       -0.512327    0.662943    2.243782
     15          1           0        0.391942   -0.838418    2.379680
     16          1           0        1.461190    1.150790    1.191723
     17          1           0       -2.032879   -1.185558    1.851729
     18          1           0       -1.021113   -1.860381    0.586294
     19          1           0       -1.533504    1.078830   -1.785917
     20          1           0       -0.705794   -0.470697   -1.644118
     21          1           0       -3.764598   -0.142241   -1.346707
     22          1           0       -2.925081   -1.688655   -1.141308
     23          1           0       -3.971089   -1.071506    0.147849
     24          1           0        0.408761    2.880164    0.368321
     25          1           0        2.324005   -1.130623    1.129066
     26          1           0        3.031965    0.636249   -1.277722
     27          1           0        3.613198    0.860345    0.381072
     28          1           0        4.065079   -0.586161   -0.533812
     29          1           0        1.341048   -1.323259   -1.769834
     30          1           0        0.761001   -2.329347   -0.432249
     31          1           0        2.448687   -2.417458   -0.942277
 ---------------------------------------------------------------------

 SCF Done:  E(RmPW1PW91) =  -468.276928350     A.U. after   12 cycles

      1  C    Isotropic =   167.8807   Anisotropy =    12.5172

      2  C    Isotropic =   127.4416   Anisotropy =    52.0444

      3  C    Isotropic =   164.2303   Anisotropy =    18.2643

      4  C    Isotropic =   145.9142   Anisotropy =    25.5470

      5  C    Isotropic =   162.3341   Anisotropy =    18.9476

      6  C    Isotropic =   156.5481   Anisotropy =    20.1144

      7  C    Isotropic =   172.4837   Anisotropy =    38.6664

      8  O    Isotropic =   269.2970   Anisotropy =   111.7180

      9  C    Isotropic =   158.1344   Anisotropy =    21.9286

     10  C    Isotropic =   171.4147   Anisotropy =    39.5969

     11  C    Isotropic =   173.8995   Anisotropy =    21.4780

     12  H    Isotropic =    29.5284   Anisotropy =     6.4700

     13  H    Isotropic =    27.4960   Anisotropy =     5.4374

     14  H    Isotropic =    29.3202   Anisotropy =     8.2525

     15  H    Isotropic =    30.2078   Anisotropy =     8.5021

     16  H    Isotropic =    30.4274   Anisotropy =     5.2299

     17  H    Isotropic =    30.1250   Anisotropy =     9.3604

     18  H    Isotropic =    30.2694   Anisotropy =     5.2461

     19  H    Isotropic =    29.7546   Anisotropy =     7.9710

     20  H    Isotropic =    30.3870   Anisotropy =     5.0444

     21  H    Isotropic =    30.6253   Anisotropy =    10.7501

     22  H    Isotropic =    31.0449   Anisotropy =     7.9688

     23  H    Isotropic =    30.6169   Anisotropy =    10.7461

     24  H    Isotropic =    31.4021   Anisotropy =    17.4266

     25  H    Isotropic =    29.8012   Anisotropy =     6.8759

     26  H    Isotropic =    30.4493   Anisotropy =     6.7205

     27  H    Isotropic =    30.7264   Anisotropy =     9.8540

     28  H    Isotropic =    30.6050   Anisotropy =    10.4348

     29  H    Isotropic =    30.7940   Anisotropy =     5.7709

     30  H    Isotropic =    30.2311   Anisotropy =     7.3805

     31  H    Isotropic =    30.6383   Anisotropy =    10.5630

 The electronic state is 1-A.
 Alpha  occ. eigenvalues --  -19.24365 -10.29522 -10.25615 -10.25112 -10.24289
 Alpha  occ. eigenvalues --  -10.23847 -10.23599 -10.23584 -10.23578 -10.23504
 Alpha  occ. eigenvalues --  -10.23001  -1.04862  -0.85655  -0.82084  -0.76677
 Alpha  occ. eigenvalues --   -0.75343  -0.70702  -0.69448  -0.62688  -0.62057
 Alpha  occ. eigenvalues --   -0.58259  -0.56011  -0.50760  -0.48944  -0.46796
 Alpha  occ. eigenvalues --   -0.46413  -0.45210  -0.43875  -0.42801  -0.41051
 Alpha  occ. eigenvalues --   -0.40344  -0.39429  -0.39014  -0.38114  -0.37362
 Alpha  occ. eigenvalues --   -0.37221  -0.36137  -0.34267  -0.33456  -0.33058
 Alpha  occ. eigenvalues --   -0.31463  -0.31136  -0.30230  -0.27514
 Alpha virt. eigenvalues --    0.00542   0.01890   0.02053   0.02129   0.03698
 Alpha virt. eigenvalues --    0.04053   0.04400   0.04942   0.05655   0.06691
 Alpha virt. eigenvalues --    0.07301   0.07868   0.08409   0.08712   0.09042

 Mulliken atomic charges:
              1
     1  C    0.296304
     2  C    0.032297
     3  C   -0.508221
     4  C   -0.110247
     5  C   -0.298561
     6  C   -0.394689
     7  C   -0.732003
     8  O   -0.520452
     9  C    0.151150
    10  C   -0.657899
    11  C   -0.595594
    12  H    0.174507
    13  H    0.129549
    14  H    0.170825
    15  H    0.149165
    16  H    0.130002
    17  H    0.155473
    18  H    0.145237
    19  H    0.169522
    20  H    0.157142
    21  H    0.163319
    22  H    0.158370
    23  H    0.161150
    24  H    0.348971
    25  H    0.151602
    26  H    0.161274
    27  H    0.159805
    28  H    0.166274
    29  H    0.162707
    30  H    0.158767
    31  H    0.164254
 Sum of Mulliken atomic charges =   0.00000

 Dipole moment (field-independent basis, Debye):
    X=              1.7852    Y=             -0.6702    Z=              0.3696  Tot=              1.9424
 Quadrupole moment (field-independent basis, Debye-Ang):
   XX=            -71.7951   YY=            -73.3712   ZZ=            -71.5234
   XY=              3.7384   XZ=              0.3216   YZ=              1.3379

 Normal termination of Gaussian 09 at Thu Sep 19 08:58:34 2024.
