 Gaussian 09, Revision C.01,
 Gaussian 09:  AM64L-G09RevC.01 23-Sep-2011

 --------------------------------------------------
 # mPW1PW91/6-31+G** nmr scrf=(pcm,solvent=benzene)
 --------------------------------------------------

 99/9=1/99;
 -------
 comment
 -------
 Charge =  0 Multiplicity = 1

                         Standard orientation:
 ---------------------------------------------------------------------
 Center     Atomic      Atomic             Coordinates (Angstroms)
 Number     Number       Type             X           Y           Z
 ---------------------------------------------------------------------
      1          6           0        2.373959   -0.312152   -0.271108
      2          6           0        0.265560    1.132500    0.035937
      3          6           0        0.046774   -1.376444   -0.095806
      4          6           0       -0.628623   -0.033767   -0.445617
      5          6           0        1.457584   -1.477607   -0.697563
      6          6           0        1.673876    1.031206   -0.558402
      7          6           0        2.845068   -0.435555    1.188255
      8          8           0       -0.237922    2.409699   -0.369830
      9          6           0       -2.102830    0.082947    0.030798
     10          6           0       -2.291909   -0.065996    1.550412
     11          6           0       -3.027492   -0.887664   -0.721922
     12          1           0        3.275838   -0.350063   -0.898466
     13          1           0        0.337233    1.101689    1.135517
     14          1           0       -0.561744   -2.212193   -0.461597
     15          1           0        0.100410   -1.494191    0.994887
     16          1           0       -0.654730    0.050109   -1.543939
     17          1           0        1.371749   -1.476818   -1.793656
     18          1           0        1.916428   -2.436513   -0.421963
     19          1           0        1.579952    1.172247   -1.644037
     20          1           0        2.274270    1.869985   -0.185217
     21          1           0        3.515903    0.390888    1.451792
     22          1           0        2.013923   -0.422197    1.902220
     23          1           0        3.393736   -1.372770    1.341459
     24          1           0       -1.037064    2.593018    0.145959
     25          1           0       -2.431933    1.095423   -0.247912
     26          1           0       -2.046565   -1.079282    1.889694
     27          1           0       -1.668507    0.632706    2.120983
     28          1           0       -3.335535    0.125414    1.826903
     29          1           0       -2.815173   -1.932620   -0.466492
     30          1           0       -2.919033   -0.779243   -1.807673
     31          1           0       -4.077588   -0.697989   -0.469718
 ---------------------------------------------------------------------

 SCF Done:  E(RmPW1PW91) =  -468.282041178     A.U. after   12 cycles

      1  C    Isotropic =   163.9939   Anisotropy =     4.6531

      2  C    Isotropic =   127.5563   Anisotropy =    57.6056

      3  C    Isotropic =   176.1925   Anisotropy =    12.8115

      4  C    Isotropic =   142.8537   Anisotropy =     9.6808

      5  C    Isotropic =   162.5777   Anisotropy =    12.1397

      6  C    Isotropic =   155.4215   Anisotropy =    22.1109

      7  C    Isotropic =   176.4183   Anisotropy =    30.6272

      8  O    Isotropic =   288.5463   Anisotropy =    29.0877

      9  C    Isotropic =   167.4229   Anisotropy =    10.0504

     10  C    Isotropic =   180.3418   Anisotropy =    24.8524

     11  C    Isotropic =   173.8950   Anisotropy =    36.7083

     12  H    Isotropic =    29.5877   Anisotropy =    10.1322

     13  H    Isotropic =    27.7954   Anisotropy =     2.5776

     14  H    Isotropic =    30.2144   Anisotropy =     9.0540

     15  H    Isotropic =    30.3142   Anisotropy =     5.5160

     16  H    Isotropic =    30.4044   Anisotropy =     3.2415

     17  H    Isotropic =    30.0395   Anisotropy =     8.8736

     18  H    Isotropic =    30.1265   Anisotropy =     9.7200

     19  H    Isotropic =    30.0835   Anisotropy =     6.8952

     20  H    Isotropic =    29.7572   Anisotropy =     7.7596

     21  H    Isotropic =    30.6636   Anisotropy =    10.3464

     22  H    Isotropic =    30.2982   Anisotropy =     5.3602

     23  H    Isotropic =    30.7921   Anisotropy =    11.0056

     24  H    Isotropic =    30.0225   Anisotropy =    17.1230

     25  H    Isotropic =    29.6004   Anisotropy =     6.5523

     26  H    Isotropic =    30.9244   Anisotropy =     7.4655

     27  H    Isotropic =    30.6230   Anisotropy =     8.6931

     28  H    Isotropic =    30.8264   Anisotropy =    10.9809

     29  H    Isotropic =    30.5594   Anisotropy =     7.1791

     30  H    Isotropic =    30.7795   Anisotropy =    10.3386

     31  H    Isotropic =    30.5340   Anisotropy =    10.7348

 The electronic state is 1-A.
 Alpha  occ. eigenvalues --  -19.24598 -10.29373 -10.25506 -10.25088 -10.24664
 Alpha  occ. eigenvalues --  -10.24116 -10.24007 -10.23692 -10.23671 -10.23468
 Alpha  occ. eigenvalues --  -10.23336  -1.05078  -0.86130  -0.82370  -0.76405
 Alpha  occ. eigenvalues --   -0.75479  -0.70538  -0.69750  -0.63857  -0.62151
 Alpha  occ. eigenvalues --   -0.57333  -0.55230  -0.52746  -0.48968  -0.47140
 Alpha  occ. eigenvalues --   -0.46196  -0.45517  -0.43590  -0.42705  -0.41866
 Alpha  occ. eigenvalues --   -0.40906  -0.40330  -0.38987  -0.38786  -0.36725
 Alpha  occ. eigenvalues --   -0.35899  -0.35088  -0.34524  -0.34312  -0.33529
 Alpha  occ. eigenvalues --   -0.32262  -0.31410  -0.30108  -0.27908
 Alpha virt. eigenvalues --    0.00508   0.01197   0.02081   0.02287   0.03834
 Alpha virt. eigenvalues --    0.04321   0.04411   0.04970   0.05484   0.06975
 Alpha virt. eigenvalues --    0.07280   0.07517   0.07999   0.08167   0.09210

 Mulliken atomic charges:
              1
     1  C    0.227336
     2  C   -0.025640
     3  C   -0.302101
     4  C   -0.190217
     5  C   -0.510597
     6  C   -0.428710
     7  C   -0.677656
     8  O   -0.497896
     9  C    0.251567
    10  C   -0.555457
    11  C   -0.703894
    12  H    0.155112
    13  H    0.141668
    14  H    0.158353
    15  H    0.164804
    16  H    0.159821
    17  H    0.163892
    18  H    0.156219
    19  H    0.172998
    20  H    0.167583
    21  H    0.165074
    22  H    0.160138
    23  H    0.164115
    24  H    0.360409
    25  H    0.138356
    26  H    0.168653
    27  H    0.155190
    28  H    0.168240
    29  H    0.162283
    30  H    0.165087
    31  H    0.165270
 Sum of Mulliken atomic charges =   0.00000

 Dipole moment (field-independent basis, Debye):
    X=             -0.6528    Y=             -1.3713    Z=              1.0525  Tot=              1.8478
 Quadrupole moment (field-independent basis, Debye-Ang):
   XX=            -68.9446   YY=            -76.3433   ZZ=            -72.5275
   XY=             -2.7679   XZ=             -1.0706   YZ=              3.5437

 Normal termination of Gaussian 09 at Thu Sep 19 08:22:27 2024.
