 Gaussian 09, Revision C.01,
 Gaussian 09:  AM64L-G09RevC.01 23-Sep-2011

 --------------------------------------------------
 # mPW1PW91/6-31+G** nmr scrf=(pcm,solvent=benzene)
 --------------------------------------------------

 99/9=1/99;
 -------
 comment
 -------
 Charge =  0 Multiplicity = 1

                         Standard orientation:
 ---------------------------------------------------------------------
 Center     Atomic      Atomic             Coordinates (Angstroms)
 Number     Number       Type             X           Y           Z
 ---------------------------------------------------------------------
      1          6           0       -2.042841   -0.287476   -0.071356
      2          6           0       -0.075773    1.365579   -0.050603
      3          6           0       -0.003500   -0.675214    1.400780
      4          6           0        0.859428    0.308094    0.577622
      5          6           0       -1.113793   -1.335271    0.567803
      6          6           0       -1.214702    0.734502   -0.869950
      7          6           0       -3.127955   -0.932420   -0.940288
      8          8           0       -0.592458    2.135878    1.045555
      9          6           0        1.799879   -0.368144   -0.463565
     10          6           0        2.611490   -1.522294    0.151844
     11          6           0        2.773146    0.642332   -1.098998
     12          1           0       -2.534600    0.257783    0.747018
     13          1           0        0.502757    2.031839   -0.706389
     14          1           0       -0.465878   -0.108428    2.216983
     15          1           0        0.625809   -1.437217    1.871517
     16          1           0        1.506143    0.852689    1.281192
     17          1           0       -1.702490   -2.012474    1.201249
     18          1           0       -0.675749   -1.961129   -0.224890
     19          1           0       -1.868810    1.534138   -1.251667
     20          1           0       -0.787931    0.249559   -1.760006
     21          1           0       -3.803078   -0.178811   -1.364657
     22          1           0       -2.684704   -1.488927   -1.776737
     23          1           0       -3.736150   -1.636289   -0.359206
     24          1           0       -1.210428    2.786762    0.677536
     25          1           0        1.188534   -0.795187   -1.271695
     26          1           0        3.184328   -1.180059    1.023927
     27          1           0        1.979019   -2.355222    0.473743
     28          1           0        3.326981   -1.918391   -0.578388
     29          1           0        3.394186    1.119620   -0.329522
     30          1           0        2.262622    1.436589   -1.652525
     31          1           0        3.446840    0.137997   -1.801652
 ---------------------------------------------------------------------

 SCF Done:  E(RmPW1PW91) =  -468.281605276     A.U. after   12 cycles

      1  C    Isotropic =   166.9155   Anisotropy =    14.5032

      2  C    Isotropic =   125.7685   Anisotropy =    51.7346

      3  C    Isotropic =   172.0680   Anisotropy =    19.6125

      4  C    Isotropic =   148.7577   Anisotropy =    26.7212

      5  C    Isotropic =   165.1655   Anisotropy =    25.0613

      6  C    Isotropic =   156.0487   Anisotropy =    26.8566

      7  C    Isotropic =   172.6561   Anisotropy =    38.4804

      8  O    Isotropic =   275.5779   Anisotropy =    92.1295

      9  C    Isotropic =   166.6865   Anisotropy =    13.4867

     10  C    Isotropic =   174.4337   Anisotropy =    30.1502

     11  C    Isotropic =   173.9138   Anisotropy =    34.2328

     12  H    Isotropic =    29.5736   Anisotropy =     6.2760

     13  H    Isotropic =    27.4253   Anisotropy =     6.3643

     14  H    Isotropic =    29.5088   Anisotropy =     7.8838

     15  H    Isotropic =    30.0292   Anisotropy =     8.3356

     16  H    Isotropic =    30.3398   Anisotropy =     5.8881

     17  H    Isotropic =    30.3019   Anisotropy =     9.6680

     18  H    Isotropic =    30.5170   Anisotropy =     4.9962

     19  H    Isotropic =    30.2764   Anisotropy =     8.1296

     20  H    Isotropic =    30.1997   Anisotropy =     4.7559

     21  H    Isotropic =    30.7147   Anisotropy =    10.7643

     22  H    Isotropic =    31.0043   Anisotropy =     8.0187

     23  H    Isotropic =    30.5878   Anisotropy =    10.7039

     24  H    Isotropic =    31.0145   Anisotropy =    18.2654

     25  H    Isotropic =    29.8677   Anisotropy =     5.6659

     26  H    Isotropic =    30.9823   Anisotropy =     8.9512

     27  H    Isotropic =    30.2258   Anisotropy =     8.2721

     28  H    Isotropic =    30.7834   Anisotropy =    10.3866

     29  H    Isotropic =    30.9809   Anisotropy =     8.8054

     30  H    Isotropic =    30.3479   Anisotropy =     8.7495

     31  H    Isotropic =    30.7216   Anisotropy =    10.6009

 The electronic state is 1-A.
 Alpha  occ. eigenvalues --  -19.24388 -10.29401 -10.25271 -10.24687 -10.24548
 Alpha  occ. eigenvalues --  -10.24201 -10.23620 -10.23321 -10.23292 -10.23249
 Alpha  occ. eigenvalues --  -10.23248  -1.04897  -0.85839  -0.81992  -0.76530
 Alpha  occ. eigenvalues --   -0.75419  -0.70094  -0.69527  -0.62800  -0.61805
 Alpha  occ. eigenvalues --   -0.59204  -0.54069  -0.51399  -0.49607  -0.47062
 Alpha  occ. eigenvalues --   -0.46217  -0.44964  -0.43647  -0.43102  -0.41238
 Alpha  occ. eigenvalues --   -0.40029  -0.39523  -0.39078  -0.37744  -0.37505
 Alpha  occ. eigenvalues --   -0.36601  -0.35779  -0.34227  -0.34071  -0.32654
 Alpha  occ. eigenvalues --   -0.31953  -0.30812  -0.29802  -0.27857
 Alpha virt. eigenvalues --    0.00500   0.01816   0.02091   0.02417   0.03897
 Alpha virt. eigenvalues --    0.04320   0.04694   0.05045   0.05557   0.06858
 Alpha virt. eigenvalues --    0.07264   0.07321   0.07975   0.08176   0.09505

 Mulliken atomic charges:
              1
     1  C    0.221645
     2  C    0.146978
     3  C   -0.413347
     4  C   -0.213110
     5  C   -0.324540
     6  C   -0.476003
     7  C   -0.699994
     8  O   -0.533994
     9  C    0.218496
    10  C   -0.656746
    11  C   -0.661916
    12  H    0.167033
    13  H    0.124683
    14  H    0.182292
    15  H    0.151132
    16  H    0.161716
    17  H    0.155765
    18  H    0.155953
    19  H    0.151947
    20  H    0.164723
    21  H    0.160450
    22  H    0.160544
    23  H    0.163253
    24  H    0.358448
    25  H    0.152927
    26  H    0.169593
    27  H    0.163036
    28  H    0.161936
    29  H    0.169497
    30  H    0.153704
    31  H    0.163900
 Sum of Mulliken atomic charges =   0.00000

 Dipole moment (field-independent basis, Debye):
    X=             -0.4806    Y=              0.0795    Z=             -1.6052  Tot=              1.6774
 Quadrupole moment (field-independent basis, Debye-Ang):
   XX=            -70.6221   YY=            -70.2760   ZZ=            -74.5827
   XY=             -2.9940   XZ=             -0.0079   YZ=             -3.4227

 Normal termination of Gaussian 09 at Thu Sep 19 08:33:44 2024.
