 Gaussian 09, Revision C.01,
 Gaussian 09:  AM64L-G09RevC.01 23-Sep-2011

 --------------------------------------------------
 # mPW1PW91/6-31+G** nmr scrf=(pcm,solvent=benzene)
 --------------------------------------------------

 99/9=1/99;
 -------
 comment
 -------
 Charge =  0 Multiplicity = 1

                         Standard orientation:
 ---------------------------------------------------------------------
 Center     Atomic      Atomic             Coordinates (Angstroms)
 Number     Number       Type             X           Y           Z
 ---------------------------------------------------------------------
      1          6           0        2.444219   -0.117910   -0.324712
      2          6           0        0.207892    1.058883    0.230515
      3          6           0        0.243515   -1.424036   -0.150513
      4          6           0       -0.618352   -0.144632   -0.291591
      5          6           0        1.616836   -1.313892   -0.829990
      6          6           0        1.588003    1.156921   -0.440349
      7          6           0        2.996607   -0.333349    1.094445
      8          8           0       -0.455097    2.323325    0.115423
      9          6           0       -2.013338   -0.272923    0.397851
     10          6           0       -2.638983   -1.673294    0.260009
     11          6           0       -3.025542    0.767856   -0.116452
     12          1           0        3.310944    0.000836   -0.990270
     13          1           0        0.336842    0.932917    1.312979
     14          1           0       -0.289824   -2.277230   -0.580903
     15          1           0        0.372415   -1.654637    0.917151
     16          1           0       -0.790122    0.015195   -1.371773
     17          1           0        1.465532   -1.206314   -1.914123
     18          1           0        2.175203   -2.248785   -0.687428
     19          1           0        1.426204    1.377203   -1.508280
     20          1           0        2.113157    2.022651   -0.018375
     21          1           0        3.597506    0.526555    1.413477
     22          1           0        2.203913   -0.472330    1.837973
     23          1           0        3.638965   -1.221499    1.130051
     24          1           0       -0.550859    2.509327   -0.833214
     25          1           0       -1.859837   -0.088010    1.472749
     26          1           0       -2.755892   -1.956550   -0.794684
     27          1           0       -2.052828   -2.453194    0.755161
     28          1           0       -3.638075   -1.679826    0.711117
     29          1           0       -3.208912    0.628526   -1.191225
     30          1           0       -2.670050    1.785769    0.045698
     31          1           0       -3.988635    0.651054    0.395257
 ---------------------------------------------------------------------

 SCF Done:  E(RmPW1PW91) =  -468.278649318     A.U. after   12 cycles

      1  C    Isotropic =   163.3716   Anisotropy =     4.8172

      2  C    Isotropic =   121.0042   Anisotropy =    46.9586

      3  C    Isotropic =   168.9962   Anisotropy =    19.8437

      4  C    Isotropic =   141.9169   Anisotropy =    11.0985

      5  C    Isotropic =   162.3008   Anisotropy =    12.8418

      6  C    Isotropic =   151.0392   Anisotropy =    28.4039

      7  C    Isotropic =   176.8175   Anisotropy =    30.0012

      8  O    Isotropic =   260.6129   Anisotropy =    44.1448

      9  C    Isotropic =   159.6867   Anisotropy =    19.6145

     10  C    Isotropic =   174.1676   Anisotropy =    26.7601

     11  C    Isotropic =   170.8234   Anisotropy =    36.9270

     12  H    Isotropic =    29.6387   Anisotropy =    10.0015

     13  H    Isotropic =    28.0546   Anisotropy =     3.3266

     14  H    Isotropic =    29.9784   Anisotropy =     8.3819

     15  H    Isotropic =    30.3402   Anisotropy =     5.6997

     16  H    Isotropic =    30.9279   Anisotropy =     2.9414

     17  H    Isotropic =    30.1295   Anisotropy =     8.6464

     18  H    Isotropic =    30.1429   Anisotropy =     9.5665

     19  H    Isotropic =    30.4382   Anisotropy =     6.0496

     20  H    Isotropic =    29.7678   Anisotropy =     7.0603

     21  H    Isotropic =    30.6474   Anisotropy =    10.3496

     22  H    Isotropic =    30.2297   Anisotropy =     5.4984

     23  H    Isotropic =    30.8096   Anisotropy =    10.9969

     24  H    Isotropic =    31.7642   Anisotropy =    13.1462

     25  H    Isotropic =    29.9501   Anisotropy =     5.5103

     26  H    Isotropic =    31.0185   Anisotropy =     8.0667

     27  H    Isotropic =    30.3932   Anisotropy =     8.3311

     28  H    Isotropic =    30.8954   Anisotropy =    10.1921

     29  H    Isotropic =    31.0335   Anisotropy =     7.6640

     30  H    Isotropic =    29.0330   Anisotropy =     7.4789

     31  H    Isotropic =    30.7145   Anisotropy =    10.7115

 The electronic state is 1-A.
 Alpha  occ. eigenvalues --  -19.24461 -10.29464 -10.25242 -10.25080 -10.25017
 Alpha  occ. eigenvalues --  -10.24221 -10.24136 -10.24097 -10.23436 -10.23103
 Alpha  occ. eigenvalues --  -10.22366  -1.05041  -0.86078  -0.82084  -0.76415
 Alpha  occ. eigenvalues --   -0.75307  -0.70001  -0.69638  -0.63131  -0.62917
 Alpha  occ. eigenvalues --   -0.57625  -0.56118  -0.51835  -0.47239  -0.46741
 Alpha  occ. eigenvalues --   -0.46378  -0.44990  -0.44025  -0.42965  -0.42640
 Alpha  occ. eigenvalues --   -0.40607  -0.39550  -0.38824  -0.38165  -0.37506
 Alpha  occ. eigenvalues --   -0.35602  -0.34932  -0.34842  -0.33865  -0.33082
 Alpha  occ. eigenvalues --   -0.32198  -0.31872  -0.30393  -0.27146
 Alpha virt. eigenvalues --    0.00808   0.01703   0.01917   0.02352   0.03949
 Alpha virt. eigenvalues --    0.04264   0.04789   0.04968   0.05682   0.06396
 Alpha virt. eigenvalues --    0.07286   0.07423   0.07612   0.08788   0.09158

 Mulliken atomic charges:
              1
     1  C    0.203618
     2  C   -0.292433
     3  C   -0.228131
     4  C   -0.150982
     5  C   -0.541705
     6  C   -0.367463
     7  C   -0.677986
     8  O   -0.476625
     9  C    0.500804
    10  C   -0.696074
    11  C   -0.724348
    12  H    0.154896
    13  H    0.159397
    14  H    0.166726
    15  H    0.167444
    16  H    0.147214
    17  H    0.161767
    18  H    0.158193
    19  H    0.155200
    20  H    0.175989
    21  H    0.165755
    22  H    0.162213
    23  H    0.164726
    24  H    0.357113
    25  H    0.153395
    26  H    0.166907
    27  H    0.166620
    28  H    0.162841
    29  H    0.156658
    30  H    0.192389
    31  H    0.155880
 Sum of Mulliken atomic charges =   0.00000

 Dipole moment (field-independent basis, Debye):
    X=              0.9092    Y=             -1.2818    Z=             -1.3040  Tot=              2.0421
 Quadrupole moment (field-independent basis, Debye-Ang):
   XX=            -72.3813   YY=            -76.2474   ZZ=            -70.1457
   XY=              0.9202   XZ=              0.4892   YZ=             -3.9761

 Normal termination of Gaussian 09 at Thu Sep 19 08:51:20 2024.
