 Gaussian 09, Revision C.01,
 Gaussian 09:  AM64L-G09RevC.01 23-Sep-2011

 --------------------------------------------------
 # mPW1PW91/6-31+G** nmr scrf=(pcm,solvent=benzene)
 --------------------------------------------------

 99/9=1/99;
 -------
 comment
 -------
 Charge =  0 Multiplicity = 1

                         Standard orientation:
 ---------------------------------------------------------------------
 Center     Atomic      Atomic             Coordinates (Angstroms)
 Number     Number       Type             X           Y           Z
 ---------------------------------------------------------------------
      1          6           0       -2.000944   -0.290654    0.210648
      2          6           0       -0.161065    1.305124   -0.577793
      3          6           0        0.238113   -0.204882    1.438224
      4          6           0        0.905300    0.624875    0.311955
      5          6           0       -0.942134   -1.086188    0.991735
      6          6           0       -1.333765    0.401384   -0.988811
      7          6           0       -3.175341   -1.172801   -0.225592
      8          8           0       -0.642119    2.417007    0.196419
      9          6           0        2.046635   -0.080065   -0.481994
     10          6           0        1.719021   -1.443926   -1.112897
     11          6           0        3.309420   -0.209272    0.388786
     12          1           0       -2.385094    0.498430    0.872755
     13          1           0        0.332200    1.686799   -1.487820
     14          1           0       -0.135000    0.500770    2.190697
     15          1           0        0.989952   -0.821439    1.946687
     16          1           0        1.400795    1.473293    0.802358
     17          1           0       -1.402574   -1.544272    1.877904
     18          1           0       -0.592333   -1.917312    0.364831
     19          1           0       -2.072138    1.007753   -1.537467
     20          1           0       -0.983329   -0.356252   -1.702455
     21          1           0       -3.935462   -0.591926   -0.762700
     22          1           0       -2.838890   -1.976648   -0.893622
     23          1           0       -3.661721   -1.641751    0.638338
     24          1           0       -1.371837    2.823259   -0.297662
     25          1           0        2.302191    0.603003   -1.307078
     26          1           0        1.510224   -2.202133   -0.349364
     27          1           0        0.859758   -1.402363   -1.789203
     28          1           0        2.576445   -1.800416   -1.696717
     29          1           0        3.147093   -0.883434    1.238765
     30          1           0        3.620750    0.762683    0.788978
     31          1           0        4.144487   -0.615673   -0.194140
 ---------------------------------------------------------------------

 SCF Done:  E(RmPW1PW91) =  -468.277463864     A.U. after   12 cycles

      1  C    Isotropic =   167.6781   Anisotropy =    13.7979

      2  C    Isotropic =   119.5619   Anisotropy =    42.7013

      3  C    Isotropic =   173.8296   Anisotropy =    19.7232

      4  C    Isotropic =   151.6122   Anisotropy =    26.9754

      5  C    Isotropic =   161.7955   Anisotropy =    18.3139

      6  C    Isotropic =   152.8405   Anisotropy =    22.4455

      7  C    Isotropic =   172.9242   Anisotropy =    38.1744

      8  O    Isotropic =   267.9367   Anisotropy =   109.9362

      9  C    Isotropic =   159.8715   Anisotropy =    19.6795

     10  C    Isotropic =   174.8162   Anisotropy =    20.9907

     11  C    Isotropic =   171.3836   Anisotropy =    39.3927

     12  H    Isotropic =    29.5981   Anisotropy =     6.3362

     13  H    Isotropic =    27.6764   Anisotropy =     4.9966

     14  H    Isotropic =    29.7025   Anisotropy =     9.0340

     15  H    Isotropic =    29.9433   Anisotropy =     8.2460

     16  H    Isotropic =    29.9231   Anisotropy =     6.0454

     17  H    Isotropic =    30.1977   Anisotropy =     9.1057

     18  H    Isotropic =    30.4739   Anisotropy =     5.0319

     19  H    Isotropic =    30.1915   Anisotropy =     7.7420

     20  H    Isotropic =    30.0784   Anisotropy =     4.7957

     21  H    Isotropic =    30.6895   Anisotropy =    10.7728

     22  H    Isotropic =    31.0063   Anisotropy =     8.0810

     23  H    Isotropic =    30.5599   Anisotropy =    10.6818

     24  H    Isotropic =    31.3027   Anisotropy =    17.7752

     25  H    Isotropic =    29.7822   Anisotropy =     7.2382

     26  H    Isotropic =    30.7456   Anisotropy =     5.9013

     27  H    Isotropic =    30.4066   Anisotropy =     7.4522

     28  H    Isotropic =    30.7382   Anisotropy =    10.6882

     29  H    Isotropic =    30.4313   Anisotropy =     6.7137

     30  H    Isotropic =    30.7081   Anisotropy =    10.3105

     31  H    Isotropic =    30.6436   Anisotropy =    10.5241

 The electronic state is 1-A.
 Alpha  occ. eigenvalues --  -19.24392 -10.29526 -10.25277 -10.24657 -10.24522
 Alpha  occ. eigenvalues --  -10.24236 -10.23615 -10.23567 -10.23316 -10.23309
 Alpha  occ. eigenvalues --  -10.23194  -1.04882  -0.85634  -0.82049  -0.76490
 Alpha  occ. eigenvalues --   -0.75405  -0.70523  -0.69539  -0.63307  -0.61774
 Alpha  occ. eigenvalues --   -0.58744  -0.54167  -0.50759  -0.49034  -0.47986
 Alpha  occ. eigenvalues --   -0.46491  -0.44455  -0.43523  -0.43344  -0.41475
 Alpha  occ. eigenvalues --   -0.40464  -0.39675  -0.39087  -0.38087  -0.37169
 Alpha  occ. eigenvalues --   -0.36562  -0.35665  -0.34363  -0.33644  -0.32775
 Alpha  occ. eigenvalues --   -0.31270  -0.31062  -0.29917  -0.28023
 Alpha virt. eigenvalues --    0.00505   0.01990   0.02068   0.02339   0.03647
 Alpha virt. eigenvalues --    0.04283   0.04528   0.05050   0.05510   0.06711
 Alpha virt. eigenvalues --    0.07207   0.07688   0.08105   0.08625   0.08995

 Mulliken atomic charges:
              1
     1  C    0.239665
     2  C    0.019348
     3  C   -0.480736
     4  C   -0.104408
     5  C   -0.339397
     6  C   -0.401967
     7  C   -0.691043
     8  O   -0.524455
     9  C    0.174796
    10  C   -0.591294
    11  C   -0.648046
    12  H    0.167001
    13  H    0.126687
    14  H    0.175136
    15  H    0.151018
    16  H    0.164016
    17  H    0.154838
    18  H    0.153161
    19  H    0.148698
    20  H    0.156080
    21  H    0.160284
    22  H    0.160156
    23  H    0.163381
    24  H    0.353242
    25  H    0.146407
    26  H    0.165297
    27  H    0.152349
    28  H    0.163287
    29  H    0.161098
    30  H    0.162764
    31  H    0.162637
 Sum of Mulliken atomic charges =   0.00000

 Dipole moment (field-independent basis, Debye):
    X=             -0.5701    Y=             -0.5291    Z=             -1.4046  Tot=              1.6055
 Quadrupole moment (field-independent basis, Debye-Ang):
   XX=            -69.8142   YY=            -74.1083   ZZ=            -71.6381
   XY=             -2.8880   XZ=              0.7571   YZ=             -3.8761

 Normal termination of Gaussian 09 at Thu Sep 19 09:11:36 2024.
