 Gaussian 09, Revision C.01,
 Gaussian 09:  AM64L-G09RevC.01 23-Sep-2011

 --------------------------------------------------
 # mPW1PW91/6-31+G** nmr scrf=(pcm,solvent=benzene)
 --------------------------------------------------

 99/9=1/99;
 -------
 comment
 -------
 Charge =  0 Multiplicity = 1

                         Standard orientation:
 ---------------------------------------------------------------------
 Center     Atomic      Atomic             Coordinates (Angstroms)
 Number     Number       Type             X           Y           Z
 ---------------------------------------------------------------------
      1          6           0       -2.001270   -0.275555    0.208450
      2          6           0       -0.163807    1.304082   -0.604471
      3          6           0        0.231451   -0.156621    1.448034
      4          6           0        0.905510    0.627965    0.295064
      5          6           0       -0.948607   -1.048004    1.021476
      6          6           0       -1.332085    0.396867   -1.002159
      7          6           0       -3.161878   -1.178682   -0.222027
      8          8           0       -0.766153    2.410261    0.084098
      9          6           0        2.029306   -0.117570   -0.489468
     10          6           0        1.690209   -1.512041   -1.042846
     11          6           0        3.311920   -0.205829    0.357796
     12          1           0       -2.402098    0.524598    0.845279
     13          1           0        0.330122    1.672361   -1.520127
     14          1           0       -0.147902    0.577985    2.169615
     15          1           0        0.978108   -0.754263    1.986180
     16          1           0        1.438100    1.471378    0.765367
     17          1           0       -1.414557   -1.476042    1.919759
     18          1           0       -0.595425   -1.899773    0.425736
     19          1           0       -2.062122    1.007493   -1.547999
     20          1           0       -0.975602   -0.370766   -1.701056
     21          1           0       -3.918813   -0.616022   -0.781862
     22          1           0       -2.809888   -1.995045   -0.866874
     23          1           0       -3.655989   -1.631991    0.646036
     24          1           0       -0.053414    3.006218    0.362409
     25          1           0        2.264793    0.522418   -1.354526
     26          1           0        1.511658   -2.232565   -0.236557
     27          1           0        0.810408   -1.509076   -1.692765
     28          1           0        2.532616   -1.890681   -1.634415
     29          1           0        3.163203   -0.828544    1.248508
     30          1           0        3.640931    0.784553    0.694492
     31          1           0        4.130600   -0.651988   -0.219079
 ---------------------------------------------------------------------

 SCF Done:  E(RmPW1PW91) =  -468.277446945     A.U. after   12 cycles

      1  C    Isotropic =   168.0177   Anisotropy =    12.8423

      2  C    Isotropic =   119.6640   Anisotropy =    43.0397

      3  C    Isotropic =   173.4899   Anisotropy =    20.7275

      4  C    Isotropic =   145.6323   Anisotropy =    29.3733

      5  C    Isotropic =   162.0867   Anisotropy =    18.5420

      6  C    Isotropic =   156.9194   Anisotropy =    20.6294

      7  C    Isotropic =   172.7761   Anisotropy =    38.3991

      8  O    Isotropic =   263.7984   Anisotropy =    94.2870

      9  C    Isotropic =   160.1658   Anisotropy =    19.1156

     10  C    Isotropic =   174.6084   Anisotropy =    20.9745

     11  C    Isotropic =   170.9707   Anisotropy =    39.8451

     12  H    Isotropic =    29.5008   Anisotropy =     6.4601

     13  H    Isotropic =    27.7117   Anisotropy =     4.9670

     14  H    Isotropic =    29.7028   Anisotropy =     8.9513

     15  H    Isotropic =    29.9486   Anisotropy =     8.1721

     16  H    Isotropic =    30.5042   Anisotropy =     5.6490

     17  H    Isotropic =    30.2055   Anisotropy =     9.1149

     18  H    Isotropic =    30.4612   Anisotropy =     4.9921

     19  H    Isotropic =    29.7668   Anisotropy =     8.2917

     20  H    Isotropic =    30.3198   Anisotropy =     5.1280

     21  H    Isotropic =    30.6195   Anisotropy =    10.8331

     22  H    Isotropic =    31.0536   Anisotropy =     8.0182

     23  H    Isotropic =    30.5903   Anisotropy =    10.7066

     24  H    Isotropic =    31.1063   Anisotropy =    16.8127

     25  H    Isotropic =    29.8066   Anisotropy =     6.9491

     26  H    Isotropic =    30.7463   Anisotropy =     5.9517

     27  H    Isotropic =    30.3518   Anisotropy =     7.4452

     28  H    Isotropic =    30.7330   Anisotropy =    10.6474

     29  H    Isotropic =    30.4200   Anisotropy =     6.7003

     30  H    Isotropic =    30.8033   Anisotropy =    10.2706

     31  H    Isotropic =    30.6186   Anisotropy =    10.4752

 The electronic state is 1-A.
 Alpha  occ. eigenvalues --  -19.24412 -10.29521 -10.25603 -10.25110 -10.24278
 Alpha  occ. eigenvalues --  -10.23892 -10.23652 -10.23522 -10.23505 -10.23459
 Alpha  occ. eigenvalues --  -10.22998  -1.04951  -0.85661  -0.82070  -0.76486
 Alpha  occ. eigenvalues --   -0.75521  -0.70646  -0.69464  -0.63007  -0.61845
 Alpha  occ. eigenvalues --   -0.58049  -0.55581  -0.51188  -0.49123  -0.47894
 Alpha  occ. eigenvalues --   -0.45706  -0.45004  -0.43897  -0.41753  -0.41574
 Alpha  occ. eigenvalues --   -0.39828  -0.39649  -0.39180  -0.38385  -0.37234
 Alpha  occ. eigenvalues --   -0.36956  -0.36415  -0.34420  -0.33437  -0.32995
 Alpha  occ. eigenvalues --   -0.31294  -0.31013  -0.30203  -0.27745
 Alpha virt. eigenvalues --    0.00403   0.01854   0.02092   0.02391   0.03733
 Alpha virt. eigenvalues --    0.04073   0.04541   0.04955   0.05490   0.06639
 Alpha virt. eigenvalues --    0.07289   0.07668   0.08276   0.08569   0.09110

 Mulliken atomic charges:
              1
     1  C    0.264323
     2  C   -0.029470
     3  C   -0.507534
     4  C   -0.087014
     5  C   -0.321471
     6  C   -0.340505
     7  C   -0.713509
     8  O   -0.518138
     9  C    0.185161
    10  C   -0.601490
    11  C   -0.663584
    12  H    0.175113
    13  H    0.127095
    14  H    0.171089
    15  H    0.152931
    16  H    0.126207
    17  H    0.154407
    18  H    0.152948
    19  H    0.170373
    20  H    0.151303
    21  H    0.163074
    22  H    0.158317
    23  H    0.161430
    24  H    0.350132
    25  H    0.145492
    26  H    0.166518
    27  H    0.155567
    28  H    0.163895
    29  H    0.163256
    30  H    0.159759
    31  H    0.164324
 Sum of Mulliken atomic charges =   0.00000

 Dipole moment (field-independent basis, Debye):
    X=              1.8547    Y=             -0.2477    Z=             -0.1274  Tot=              1.8755
 Quadrupole moment (field-independent basis, Debye-Ang):
   XX=            -73.4918   YY=            -72.0630   ZZ=            -71.4214
   XY=              4.5573   XZ=             -0.2067   YZ=              0.5219

 Normal termination of Gaussian 09 at Thu Sep 19 09:10:52 2024.
