 Gaussian 09, Revision C.01,
 Gaussian 09:  EM64L-G09RevC.01 23-Sep-2011

 --------------------------------------------------
 # mPW1PW91/6-31+G** nmr scrf=(pcm,solvent=benzene)
 --------------------------------------------------

 99/9=1/99;
 -------
 comment
 -------
 Charge =  0 Multiplicity = 1

                         Standard orientation:
 ---------------------------------------------------------------------
 Center     Atomic      Atomic             Coordinates (Angstroms)
 Number     Number       Type             X           Y           Z
 ---------------------------------------------------------------------
      1          6           0       -2.042906   -0.284904   -0.076233
      2          6           0       -0.075772    1.374889   -0.047467
      3          6           0       -0.002832   -0.683759    1.397268
      4          6           0        0.859411    0.306550    0.580111
      5          6           0       -1.117150   -1.336322    0.563004
      6          6           0       -1.215102    0.744493   -0.869071
      7          6           0       -3.127270   -0.925194   -0.949747
      8          8           0       -0.585967    2.265648    0.953313
      9          6           0        1.796637   -0.378454   -0.459311
     10          6           0        2.624941   -1.517281    0.163324
     11          6           0        2.753029    0.634065   -1.116247
     12          1           0       -2.554833    0.247893    0.743182
     13          1           0        0.501866    2.037031   -0.697371
     14          1           0       -0.461914   -0.140018    2.237012
     15          1           0        0.624936   -1.448437    1.864722
     16          1           0        1.509743    0.845960    1.284147
     17          1           0       -1.705732   -2.018155    1.191372
     18          1           0       -0.676451   -1.955511   -0.232224
     19          1           0       -1.863360    1.549344   -1.237564
     20          1           0       -0.789849    0.251513   -1.755199
     21          1           0       -3.799943   -0.167500   -1.369066
     22          1           0       -2.679857   -1.473521   -1.788967
     23          1           0       -3.735563   -1.634283   -0.375281
     24          1           0       -1.156287    1.753963    1.546549
     25          1           0        1.181985   -0.820785   -1.256514
     26          1           0        3.202172   -1.159022    1.026037
     27          1           0        2.004611   -2.353744    0.500285
     28          1           0        3.337920   -1.915502   -0.568102
     29          1           0        3.369210    1.135316   -0.358296
     30          1           0        2.229481    1.409598   -1.683644
     31          1           0        3.431672    0.126184   -1.811370
 ---------------------------------------------------------------------

 SCF Done:  E(RmPW1PW91) =  -468.280917730     A.U. after   12 cycles

      1  C    Isotropic =   166.5826   Anisotropy =    17.6529

      2  C    Isotropic =   125.7216   Anisotropy =    53.6212

      3  C    Isotropic =   171.7630   Anisotropy =    22.9378

      4  C    Isotropic =   147.1121   Anisotropy =    28.8349

      5  C    Isotropic =   165.9193   Anisotropy =    24.0408

      6  C    Isotropic =   158.2793   Anisotropy =    23.3808

      7  C    Isotropic =   172.6189   Anisotropy =    38.6173

      8  O    Isotropic =   279.5340   Anisotropy =    35.9406

      9  C    Isotropic =   166.4058   Anisotropy =    14.1164

     10  C    Isotropic =   174.4579   Anisotropy =    30.6809

     11  C    Isotropic =   174.2126   Anisotropy =    33.5736

     12  H    Isotropic =    30.0844   Anisotropy =     6.2832

     13  H    Isotropic =    27.6083   Anisotropy =     5.9880

     14  H    Isotropic =    30.1964   Anisotropy =     8.0115

     15  H    Isotropic =    29.8341   Anisotropy =     8.4213

     16  H    Isotropic =    30.4182   Anisotropy =     5.8958

     17  H    Isotropic =    30.3499   Anisotropy =     9.7340

     18  H    Isotropic =    30.5185   Anisotropy =     5.1107

     19  H    Isotropic =    29.9467   Anisotropy =     8.6175

     20  H    Isotropic =    30.2630   Anisotropy =     4.9335

     21  H    Isotropic =    30.6323   Anisotropy =    10.8734

     22  H    Isotropic =    30.9578   Anisotropy =     8.1375

     23  H    Isotropic =    30.5495   Anisotropy =    10.7052

     24  H    Isotropic =    29.9374   Anisotropy =    12.6746

     25  H    Isotropic =    29.8834   Anisotropy =     5.5911

     26  H    Isotropic =    30.9950   Anisotropy =     8.9208

     27  H    Isotropic =    30.2622   Anisotropy =     8.2783

     28  H    Isotropic =    30.7584   Anisotropy =    10.4493

     29  H    Isotropic =    30.9500   Anisotropy =     8.8272

     30  H    Isotropic =    30.2752   Anisotropy =     8.7014

     31  H    Isotropic =    30.7105   Anisotropy =    10.6235

 The electronic state is 1-A.
 Alpha  occ. eigenvalues --  -19.24421 -10.29359 -10.25516 -10.25497 -10.24877
 Alpha  occ. eigenvalues --  -10.24438 -10.24305 -10.24103 -10.23640 -10.23490
 Alpha  occ. eigenvalues --  -10.23425  -1.04943  -0.86206  -0.82329  -0.76995
 Alpha  occ. eigenvalues --   -0.75717  -0.70268  -0.69769  -0.63670  -0.62481
 Alpha  occ. eigenvalues --   -0.59157  -0.54900  -0.51910  -0.49127  -0.47321
 Alpha  occ. eigenvalues --   -0.46837  -0.44987  -0.43862  -0.42306  -0.42165
 Alpha  occ. eigenvalues --   -0.40329  -0.39965  -0.39296  -0.38274  -0.37993
 Alpha  occ. eigenvalues --   -0.37315  -0.35674  -0.34871  -0.34500  -0.33362
 Alpha  occ. eigenvalues --   -0.32259  -0.31407  -0.30121  -0.27790
 Alpha virt. eigenvalues --    0.00604   0.01572   0.02160   0.02437   0.03881
 Alpha virt. eigenvalues --    0.04247   0.04497   0.05062   0.05673   0.06555
 Alpha virt. eigenvalues --    0.07234   0.07351   0.07817   0.08336   0.09033

 Mulliken atomic charges:
              1
     1  C    0.269643
     2  C    0.055726
     3  C   -0.290334
     4  C   -0.271209
     5  C   -0.357248
     6  C   -0.423167
     7  C   -0.804983
     8  O   -0.478786
     9  C    0.228094
    10  C   -0.654598
    11  C   -0.669216
    12  H    0.146360
    13  H    0.137545
    14  H    0.147396
    15  H    0.161914
    16  H    0.167214
    17  H    0.159322
    18  H    0.162379
    19  H    0.173877
    20  H    0.163316
    21  H    0.166007
    22  H    0.163061
    23  H    0.163823
    24  H    0.343547
    25  H    0.154406
    26  H    0.169988
    27  H    0.161002
    28  H    0.163865
    29  H    0.170419
    30  H    0.156233
    31  H    0.164400
 Sum of Mulliken atomic charges =   0.00000

 Dipole moment (field-independent basis, Debye):
    X=             -0.2589    Y=             -2.1844    Z=             -0.3192  Tot=              2.2227
 Quadrupole moment (field-independent basis, Debye-Ang):
   XX=            -70.2274   YY=            -79.9255   ZZ=            -70.3300
   XY=              0.4152   XZ=             -1.7630   YZ=             -2.3466

 Normal termination of Gaussian 09 at Thu Sep 19 08:49:48 2024.
