 Gaussian 09, Revision C.01,
 Gaussian 09:  AM64L-G09RevC.01 23-Sep-2011

 --------------------------------------------------
 # mPW1PW91/6-31+G** nmr scrf=(pcm,solvent=benzene)
 --------------------------------------------------

 99/9=1/99;
 -------
 comment
 -------
 Charge =  0 Multiplicity = 1

                         Standard orientation:
 ---------------------------------------------------------------------
 Center     Atomic      Atomic             Coordinates (Angstroms)
 Number     Number       Type             X           Y           Z
 ---------------------------------------------------------------------
      1          6           0       -2.047613   -0.054798   -0.004768
      2          6           0        0.177736    1.148911   -0.477413
      3          6           0       -0.123913   -0.222998    1.658274
      4          6           0        0.900364    0.370206    0.654964
      5          6           0       -1.331120   -0.938586    1.030266
      6          6           0       -1.041491    0.417649   -1.069262
      7          6           0       -3.247482   -0.767354   -0.637808
      8          8           0       -0.200549    2.457953   -0.020949
      9          6           0        2.014599   -0.623482    0.200238
     10          6           0        3.244594    0.134182   -0.332967
     11          6           0        1.616396   -1.721593   -0.800585
     12          1           0       -2.432810    0.834725    0.521857
     13          1           0        0.886976    1.357969   -1.284962
     14          1           0       -0.510934    0.599899    2.279112
     15          1           0        0.394536   -0.893631    2.355870
     16          1           0        1.446569    1.147310    1.206011
     17          1           0       -2.033180   -1.230617    1.823198
     18          1           0       -1.017492   -1.871049    0.542602
     19          1           0       -1.529627    1.097780   -1.778418
     20          1           0       -0.705175   -0.454760   -1.644310
     21          1           0       -3.766376   -0.116541   -1.351529
     22          1           0       -2.927263   -1.666787   -1.179501
     23          1           0       -3.972976   -1.078058    0.123755
     24          1           0       -0.818511    2.344861    0.717894
     25          1           0        2.334215   -1.134234    1.121568
     26          1           0        3.025281    0.659304   -1.270627
     27          1           0        3.602091    0.878422    0.388091
     28          1           0        4.068923   -0.559955   -0.535367
     29          1           0        1.339540   -1.302625   -1.775297
     30          1           0        0.782051   -2.334596   -0.447274
     31          1           0        2.466126   -2.393863   -0.970724
 ---------------------------------------------------------------------

 SCF Done:  E(RmPW1PW91) =  -468.276167755     A.U. after   12 cycles

      1  C    Isotropic =   167.3342   Anisotropy =    15.8421

      2  C    Isotropic =   127.3615   Anisotropy =    54.2143

      3  C    Isotropic =   164.8894   Anisotropy =    19.8915

      4  C    Isotropic =   149.1955   Anisotropy =    24.9008

      5  C    Isotropic =   162.7746   Anisotropy =    17.7299

      6  C    Isotropic =   154.6427   Anisotropy =    19.8820

      7  C    Isotropic =   172.4584   Anisotropy =    38.7963

      8  O    Isotropic =   270.5524   Anisotropy =    45.2112

      9  C    Isotropic =   157.8011   Anisotropy =    22.4251

     10  C    Isotropic =   171.5744   Anisotropy =    39.0230

     11  C    Isotropic =   173.9563   Anisotropy =    21.7483

     12  H    Isotropic =    30.1192   Anisotropy =     6.3656

     13  H    Isotropic =    27.7218   Anisotropy =     5.2366

     14  H    Isotropic =    29.7226   Anisotropy =     8.3665

     15  H    Isotropic =    30.0942   Anisotropy =     8.6303

     16  H    Isotropic =    29.9408   Anisotropy =     5.6322

     17  H    Isotropic =    30.1648   Anisotropy =     9.4000

     18  H    Isotropic =    30.2818   Anisotropy =     5.4328

     19  H    Isotropic =    29.7753   Anisotropy =     7.9390

     20  H    Isotropic =    30.2822   Anisotropy =     4.7988

     21  H    Isotropic =    30.6215   Anisotropy =    10.7882

     22  H    Isotropic =    30.9607   Anisotropy =     8.1101

     23  H    Isotropic =    30.5642   Anisotropy =    10.7046

     24  H    Isotropic =    29.8881   Anisotropy =    12.2552

     25  H    Isotropic =    29.8241   Anisotropy =     6.9685

     26  H    Isotropic =    30.4075   Anisotropy =     6.7130

     27  H    Isotropic =    30.5986   Anisotropy =     9.9668

     28  H    Isotropic =    30.6206   Anisotropy =    10.5232

     29  H    Isotropic =    30.7897   Anisotropy =     5.7111

     30  H    Isotropic =    30.3033   Anisotropy =     7.3742

     31  H    Isotropic =    30.6277   Anisotropy =    10.6149

 The electronic state is 1-A.
 Alpha  occ. eigenvalues --  -19.24359 -10.29458 -10.25536 -10.25359 -10.24882
 Alpha  occ. eigenvalues --  -10.24536 -10.24194 -10.23908 -10.23571 -10.23513
 Alpha  occ. eigenvalues --  -10.23317  -1.04830  -0.85928  -0.82307  -0.77040
 Alpha  occ. eigenvalues --   -0.75442  -0.70716  -0.69622  -0.63894  -0.62334
 Alpha  occ. eigenvalues --   -0.58595  -0.55627  -0.50823  -0.48803  -0.47489
 Alpha  occ. eigenvalues --   -0.46470  -0.45015  -0.43269  -0.43051  -0.42096
 Alpha  occ. eigenvalues --   -0.41138  -0.40352  -0.39117  -0.38122  -0.37693
 Alpha  occ. eigenvalues --   -0.37240  -0.36031  -0.34752  -0.33592  -0.33353
 Alpha  occ. eigenvalues --   -0.31892  -0.31442  -0.29984  -0.27862
 Alpha virt. eigenvalues --    0.00561   0.01594   0.01946   0.02524   0.03588
 Alpha virt. eigenvalues --    0.04161   0.04423   0.05022   0.05699   0.06807
 Alpha virt. eigenvalues --    0.07084   0.07654   0.08411   0.08585   0.08763

 Mulliken atomic charges:
              1
     1  C    0.313232
     2  C    0.006837
     3  C   -0.383430
     4  C   -0.215578
     5  C   -0.309528
     6  C   -0.389076
     7  C   -0.814100
     8  O   -0.483899
     9  C    0.147992
    10  C   -0.652043
    11  C   -0.595544
    12  H    0.143722
    13  H    0.143011
    14  H    0.157008
    15  H    0.157449
    16  H    0.169284
    17  H    0.158511
    18  H    0.150904
    19  H    0.173010
    20  H    0.158213
    21  H    0.165944
    22  H    0.162267
    23  H    0.163188
    24  H    0.350960
    25  H    0.150121
    26  H    0.160944
    27  H    0.163696
    28  H    0.164048
    29  H    0.162240
    30  H    0.155938
    31  H    0.164677
 Sum of Mulliken atomic charges =   0.00000

 Dipole moment (field-independent basis, Debye):
    X=             -0.4320    Y=             -1.9793    Z=              0.8258  Tot=              2.1878
 Quadrupole moment (field-independent basis, Debye-Ang):
   XX=            -70.2004   YY=            -79.5142   ZZ=            -70.2573
   XY=             -2.0546   XZ=             -1.2545   YZ=              1.9880

 Normal termination of Gaussian 09 at Thu Sep 19 09:12:40 2024.
