 Gaussian 09, Revision C.01,
 Gaussian 09:  EM64L-G09RevC.01 23-Sep-2011

 --------------------------------------------------
 # mPW1PW91/6-31+G** nmr scrf=(pcm,solvent=benzene)
 --------------------------------------------------

 99/9=1/99;
 -------
 comment
 -------
 Charge =  0 Multiplicity = 1

                         Standard orientation:
 ---------------------------------------------------------------------
 Center     Atomic      Atomic             Coordinates (Angstroms)
 Number     Number       Type             X           Y           Z
 ---------------------------------------------------------------------
      1          6           0        2.424871    0.122407   -0.266259
      2          6           0        0.014494    0.927983    0.191622
      3          6           0        0.431918   -1.486908   -0.393791
      4          6           0       -0.571031   -0.315530   -0.509702
      5          6           0        1.826143   -1.132248   -0.933527
      6          6           0        1.408405    1.279176   -0.353351
      7          6           0        2.897141   -0.141200    1.173739
      8          8           0       -0.843360    2.073199    0.121959
      9          6           0       -1.994876   -0.737333   -0.038092
     10          6           0       -3.115857    0.088325   -0.692123
     11          6           0       -2.161233   -0.745361    1.490812
     12          1           0        3.312736    0.418005   -0.843050
     13          1           0        0.090135    0.726353    1.265687
     14          1           0        0.036694   -2.352335   -0.941312
     15          1           0        0.506331   -1.802744    0.656039
     16          1           0       -0.646513   -0.067618   -1.583690
     17          1           0        1.748239   -0.952917   -2.015866
     18          1           0        2.505602   -1.986015   -0.809437
     19          1           0        1.293878    1.571322   -1.409806
     20          1           0        1.777868    2.164808    0.178405
     21          1           0        3.336297    0.762985    1.611782
     22          1           0        2.082373   -0.461326    1.832636
     23          1           0        3.661804   -0.927052    1.192912
     24          1           0       -0.938023    2.302834   -0.817020
     25          1           0       -2.123412   -1.774417   -0.384645
     26          1           0       -3.082513    1.128675   -0.356810
     27          1           0       -3.032602    0.075518   -1.786566
     28          1           0       -4.099574   -0.321831   -0.432095
     29          1           0       -2.140425    0.272603    1.894944
     30          1           0       -1.377420   -1.327368    1.990192
     31          1           0       -3.124441   -1.190929    1.766052
 ---------------------------------------------------------------------

 SCF Done:  E(RmPW1PW91) =  -468.280717365     A.U. after   12 cycles

      1  C    Isotropic =   163.1526   Anisotropy =     4.2336

      2  C    Isotropic =   126.1807   Anisotropy =    61.2832

      3  C    Isotropic =   166.4524   Anisotropy =    28.1870

      4  C    Isotropic =   142.3141   Anisotropy =    12.7497

      5  C    Isotropic =   162.5916   Anisotropy =    12.0433

      6  C    Isotropic =   150.9923   Anisotropy =    27.9618

      7  C    Isotropic =   176.7478   Anisotropy =    30.0352

      8  O    Isotropic =   265.2671   Anisotropy =    43.2027

      9  C    Isotropic =   158.1698   Anisotropy =    22.3575

     10  C    Isotropic =   170.2054   Anisotropy =    37.1559

     11  C    Isotropic =   179.1250   Anisotropy =    23.8864

     12  H    Isotropic =    29.6464   Anisotropy =    10.0313

     13  H    Isotropic =    27.7639   Anisotropy =     3.1544

     14  H    Isotropic =    30.3865   Anisotropy =     9.0938

     15  H    Isotropic =    29.9202   Anisotropy =     4.9070

     16  H    Isotropic =    30.6038   Anisotropy =     3.5668

     17  H    Isotropic =    30.0608   Anisotropy =     8.8377

     18  H    Isotropic =    30.1705   Anisotropy =     9.7796

     19  H    Isotropic =    30.4639   Anisotropy =     6.2727

     20  H    Isotropic =    29.7250   Anisotropy =     7.1145

     21  H    Isotropic =    30.6513   Anisotropy =    10.2628

     22  H    Isotropic =    30.2381   Anisotropy =     5.4401

     23  H    Isotropic =    30.7930   Anisotropy =    11.0509

     24  H    Isotropic =    31.7786   Anisotropy =    13.5755

     25  H    Isotropic =    30.1545   Anisotropy =     6.6386

     26  H    Isotropic =    29.9348   Anisotropy =     5.6501

     27  H    Isotropic =    30.6252   Anisotropy =     9.2087

     28  H    Isotropic =    30.6280   Anisotropy =    11.0772

     29  H    Isotropic =    30.4666   Anisotropy =     6.9384

     30  H    Isotropic =    30.5123   Anisotropy =     8.3969

     31  H    Isotropic =    30.7457   Anisotropy =    10.8450

 The electronic state is 1-A.
 Alpha  occ. eigenvalues --  -19.24413 -10.29286 -10.25303 -10.24961 -10.24892
 Alpha  occ. eigenvalues --  -10.24282 -10.24175 -10.24071 -10.23440 -10.22921
 Alpha  occ. eigenvalues --  -10.22680  -1.04929  -0.86115  -0.82051  -0.76489
 Alpha  occ. eigenvalues --   -0.75239  -0.69896  -0.69805  -0.63649  -0.62684
 Alpha  occ. eigenvalues --   -0.57471  -0.56173  -0.51034  -0.47817  -0.47084
 Alpha  occ. eigenvalues --   -0.45800  -0.45291  -0.44764  -0.42532  -0.41596
 Alpha  occ. eigenvalues --   -0.40545  -0.39866  -0.38862  -0.38464  -0.37620
 Alpha  occ. eigenvalues --   -0.36087  -0.35067  -0.34557  -0.33524  -0.33205
 Alpha  occ. eigenvalues --   -0.32088  -0.31793  -0.30425  -0.27210
 Alpha virt. eigenvalues --    0.00761   0.01647   0.01801   0.02306   0.03962
 Alpha virt. eigenvalues --    0.04289   0.04500   0.05052   0.05602   0.06082
 Alpha virt. eigenvalues --    0.07222   0.07706   0.08180   0.08510   0.08988

 Mulliken atomic charges:
              1
     1  C    0.213332
     2  C   -0.292465
     3  C   -0.255037
     4  C   -0.064596
     5  C   -0.513728
     6  C   -0.371160
     7  C   -0.688799
     8  O   -0.473650
     9  C    0.386575
    10  C   -0.703318
    11  C   -0.659850
    12  H    0.155286
    13  H    0.162354
    14  H    0.159906
    15  H    0.163484
    16  H    0.143887
    17  H    0.161847
    18  H    0.158039
    19  H    0.155813
    20  H    0.174336
    21  H    0.165785
    22  H    0.162844
    23  H    0.164813
    24  H    0.352557
    25  H    0.142447
    26  H    0.184572
    27  H    0.155104
    28  H    0.158866
    29  H    0.180009
    30  H    0.157809
    31  H    0.162939
 Sum of Mulliken atomic charges =   0.00000

 Dipole moment (field-independent basis, Debye):
    X=              1.0708    Y=             -1.1102    Z=             -1.4214  Tot=              2.0975
 Quadrupole moment (field-independent basis, Debye-Ang):
   XX=            -72.3930   YY=            -74.7544   ZZ=            -70.7231
   XY=              1.7385   XZ=              1.3242   YZ=             -3.5555

 Normal termination of Gaussian 09 at Thu Sep 19 08:43:10 2024.
