 Gaussian 09, Revision C.01,
 Gaussian 09:  AM64L-G09RevC.01 23-Sep-2011

 --------------------------------------------------
 # mPW1PW91/6-31+G** nmr scrf=(pcm,solvent=benzene)
 --------------------------------------------------

 99/9=1/99;
 -------
 comment
 -------
 Charge =  0 Multiplicity = 1

                         Standard orientation:
 ---------------------------------------------------------------------
 Center     Atomic      Atomic             Coordinates (Angstroms)
 Number     Number       Type             X           Y           Z
 ---------------------------------------------------------------------
      1          6           0       -2.232802    0.016402    0.215391
      2          6           0        0.089558   -1.051098   -0.078535
      3          6           0       -0.136976    1.467305    0.121427
      4          6           0        0.666001    0.316288   -0.518285
      5          6           0       -1.634917    1.370810   -0.205928
      6          6           0       -1.415121   -1.135859   -0.396375
      7          6           0       -3.718095   -0.092827   -0.146420
      8          8           0        0.344309   -1.364251    1.298062
      9          6           0        2.204564    0.490143   -0.373860
     10          6           0        2.977977   -0.614105   -1.112300
     11          6           0        2.721878    0.627351    1.069229
     12          1           0       -2.153950   -0.057952    1.312993
     13          1           0        0.601469   -1.850758   -0.623201
     14          1           0        0.265267    2.429911   -0.220766
     15          1           0       -0.007049    1.465084    1.214218
     16          1           0        0.466444    0.368258   -1.601602
     17          1           0       -1.777592    1.499658   -1.289970
     18          1           0       -2.182997    2.189989    0.278736
     19          1           0       -1.547487   -1.124682   -1.488778
     20          1           0       -1.792780   -2.101839   -0.038700
     21          1           0       -3.861235   -0.027737   -1.232792
     22          1           0       -4.139867   -1.048120    0.187800
     23          1           0       -4.301300    0.712932    0.315474
     24          1           0       -0.028216   -0.652785    1.841283
     25          1           0        2.431210    1.438932   -0.885802
     26          1           0        2.879242   -1.580915   -0.605315
     27          1           0        2.624794   -0.735310   -2.144237
     28          1           0        4.047048   -0.374566   -1.152807
     29          1           0        2.540175   -0.285851    1.642487
     30          1           0        2.248299    1.462862    1.597584
     31          1           0        3.801655    0.820436    1.062831
 ---------------------------------------------------------------------

 SCF Done:  E(RmPW1PW91) =  -468.281939788     A.U. after   12 cycles

      1  C    Isotropic =   166.7155   Anisotropy =    17.4668

      2  C    Isotropic =   126.4458   Anisotropy =    55.7487

      3  C    Isotropic =   167.8460   Anisotropy =    24.8479

      4  C    Isotropic =   148.9379   Anisotropy =    16.5062

      5  C    Isotropic =   159.4627   Anisotropy =    19.1394

      6  C    Isotropic =   151.4578   Anisotropy =    24.5906

      7  C    Isotropic =   172.8529   Anisotropy =    38.3285

      8  O    Isotropic =   288.0812   Anisotropy =    18.6051

      9  C    Isotropic =   160.1243   Anisotropy =    17.7696

     10  C    Isotropic =   174.2213   Anisotropy =    33.4765

     11  C    Isotropic =   177.8727   Anisotropy =    24.5784

     12  H    Isotropic =    30.0213   Anisotropy =     5.4095

     13  H    Isotropic =    27.4116   Anisotropy =     4.5855

     14  H    Isotropic =    30.3160   Anisotropy =     8.8919

     15  H    Isotropic =    30.0150   Anisotropy =     5.3669

     16  H    Isotropic =    30.3148   Anisotropy =     4.8636

     17  H    Isotropic =    30.5899   Anisotropy =     7.0637

     18  H    Isotropic =    29.9113   Anisotropy =     9.0659

     19  H    Isotropic =    30.5376   Anisotropy =     6.6426

     20  H    Isotropic =    29.8175   Anisotropy =     7.7680

     21  H    Isotropic =    30.9979   Anisotropy =     8.6231

     22  H    Isotropic =    30.6427   Anisotropy =    10.7047

     23  H    Isotropic =    30.5263   Anisotropy =    10.5448

     24  H    Isotropic =    30.5355   Anisotropy =    12.0639

     25  H    Isotropic =    29.9495   Anisotropy =     7.7153

     26  H    Isotropic =    30.3233   Anisotropy =     6.8615

     27  H    Isotropic =    30.7293   Anisotropy =     9.8028

     28  H    Isotropic =    30.5063   Anisotropy =    10.6497

     29  H    Isotropic =    30.0885   Anisotropy =     6.1739

     30  H    Isotropic =    30.5455   Anisotropy =     7.9350

     31  H    Isotropic =    30.9069   Anisotropy =    10.9393

 The electronic state is 1-A.
 Alpha  occ. eigenvalues --  -19.24365 -10.29373 -10.25374 -10.25096 -10.24973
 Alpha  occ. eigenvalues --  -10.24562 -10.24332 -10.23976 -10.23582 -10.23100
 Alpha  occ. eigenvalues --  -10.22613  -1.04862  -0.86064  -0.82249  -0.76926
 Alpha  occ. eigenvalues --   -0.75788  -0.69852  -0.69557  -0.63775  -0.62268
 Alpha  occ. eigenvalues --   -0.57937  -0.56579  -0.50241  -0.48613  -0.48299
 Alpha  occ. eigenvalues --   -0.45861  -0.45156  -0.43162  -0.42672  -0.42120
 Alpha  occ. eigenvalues --   -0.41186  -0.39928  -0.38752  -0.38503  -0.37066
 Alpha  occ. eigenvalues --   -0.36055  -0.35681  -0.35328  -0.33783  -0.33041
 Alpha  occ. eigenvalues --   -0.32710  -0.31703  -0.29983  -0.27340
 Alpha virt. eigenvalues --    0.00523   0.01539   0.01964   0.02723   0.03625
 Alpha virt. eigenvalues --    0.04214   0.04485   0.04945   0.05908   0.06533
 Alpha virt. eigenvalues --    0.06996   0.07547   0.08056   0.08538   0.09619

 Mulliken atomic charges:
              1
     1  C    0.305158
     2  C    0.157870
     3  C   -0.221682
     4  C   -0.436883
     5  C   -0.443925
     6  C   -0.543796
     7  C   -0.820106
     8  O   -0.480281
     9  C    0.395395
    10  C   -0.676575
    11  C   -0.669973
    12  H    0.149927
    13  H    0.146913
    14  H    0.165089
    15  H    0.152515
    16  H    0.161310
    17  H    0.162888
    18  H    0.158799
    19  H    0.163756
    20  H    0.173390
    21  H    0.162876
    22  H    0.166408
    23  H    0.163646
    24  H    0.352751
    25  H    0.151235
    26  H    0.171869
    27  H    0.160284
    28  H    0.165348
    29  H    0.191737
    30  H    0.155492
    31  H    0.158565
 Sum of Mulliken atomic charges =   0.00000

 Dipole moment (field-independent basis, Debye):
    X=             -0.9690    Y=              1.6322    Z=             -0.8511  Tot=              2.0802
 Quadrupole moment (field-independent basis, Debye-Ang):
   XX=            -72.5546   YY=            -74.9244   ZZ=            -71.3174
   XY=              1.1575   XZ=             -2.0503   YZ=              3.2443

 Normal termination of Gaussian 09 at Thu Sep 19 09:36:37 2024.
