 Gaussian 09, Revision C.01,
 Gaussian 09:  EM64L-G09RevC.01 23-Sep-2011

 --------------------------------------------------
 # mPW1PW91/6-31+G** nmr scrf=(pcm,solvent=benzene)
 --------------------------------------------------

 99/9=1/99;
 -------
 comment
 -------
 Charge =  0 Multiplicity = 1

                         Standard orientation:
 ---------------------------------------------------------------------
 Center     Atomic      Atomic             Coordinates (Angstroms)
 Number     Number       Type             X           Y           Z
 ---------------------------------------------------------------------
      1          6           0       -2.269906    0.082193    0.169887
      2          6           0       -0.037588   -1.123512   -0.179268
      3          6           0       -0.058229    1.313068    0.495128
      4          6           0        0.717076    0.226259   -0.279243
      5          6           0       -1.525007    1.420715    0.052006
      6          6           0       -1.502621   -0.999468   -0.606612
      7          6           0       -3.723328    0.189308   -0.303522
      8          8           0       -0.046632   -1.634762    1.160731
      9          6           0        2.205008    0.126365    0.161874
     10          6           0        2.968815    1.440302   -0.079654
     11          6           0        2.958146   -1.027002   -0.527491
     12          1           0       -2.271341   -0.210746    1.228919
     13          1           0        0.445056   -1.854789   -0.844958
     14          1           0        0.425935    2.287735    0.371643
     15          1           0       -0.020808    1.073065    1.566483
     16          1           0        0.715656    0.497893   -1.348594
     17          1           0       -1.566459    1.763087   -0.994535
     18          1           0       -2.036136    2.189309    0.647565
     19          1           0       -1.530818   -0.766897   -1.681673
     20          1           0       -1.983829   -1.977137   -0.477987
     21          1           0       -3.774671    0.473040   -1.363205
     22          1           0       -4.250947   -0.765508   -0.189721
     23          1           0       -4.273539    0.945735    0.269370
     24          1           0        0.873880   -1.766704    1.433980
     25          1           0        2.219328   -0.061030    1.248076
     26          1           0        2.950419    1.711233   -1.143588
     27          1           0        2.551304    2.277933    0.486284
     28          1           0        4.019144    1.335886    0.216640
     29          1           0        2.921322   -0.922869   -1.619613
     30          1           0        2.551891   -2.013607   -0.278188
     31          1           0        4.013479   -1.026909   -0.231374
 ---------------------------------------------------------------------

 SCF Done:  E(RmPW1PW91) =  -468.284363749     A.U. after   12 cycles

      1  C    Isotropic =   167.8477   Anisotropy =    13.3480

      2  C    Isotropic =   126.8433   Anisotropy =    47.9455

      3  C    Isotropic =   168.8993   Anisotropy =    20.4500

      4  C    Isotropic =   146.4150   Anisotropy =    14.7003

      5  C    Isotropic =   159.5649   Anisotropy =    20.9427

      6  C    Isotropic =   153.9670   Anisotropy =    22.6543

      7  C    Isotropic =   173.0402   Anisotropy =    38.0423

      8  O    Isotropic =   302.1673   Anisotropy =    64.1287

      9  C    Isotropic =   164.0248   Anisotropy =    19.1821

     10  C    Isotropic =   174.2672   Anisotropy =    32.2469

     11  C    Isotropic =   175.2988   Anisotropy =    28.9609

     12  H    Isotropic =    29.5533   Anisotropy =     5.7482

     13  H    Isotropic =    27.4240   Anisotropy =     5.0513

     14  H    Isotropic =    29.9313   Anisotropy =     8.8287

     15  H    Isotropic =    30.0891   Anisotropy =     5.8709

     16  H    Isotropic =    30.7538   Anisotropy =     4.3791

     17  H    Isotropic =    30.6432   Anisotropy =     6.8778

     18  H    Isotropic =    29.9609   Anisotropy =     8.9662

     19  H    Isotropic =    30.6055   Anisotropy =     6.6513

     20  H    Isotropic =    29.6287   Anisotropy =     7.9854

     21  H    Isotropic =    31.0963   Anisotropy =     8.5093

     22  H    Isotropic =    30.6368   Anisotropy =    10.6724

     23  H    Isotropic =    30.5919   Anisotropy =    10.6352

     24  H    Isotropic =    30.6481   Anisotropy =    17.0051

     25  H    Isotropic =    30.2227   Anisotropy =     4.8038

     26  H    Isotropic =    31.0238   Anisotropy =     8.5126

     27  H    Isotropic =    30.2247   Anisotropy =     8.6823

     28  H    Isotropic =    30.6785   Anisotropy =    10.6406

     29  H    Isotropic =    30.9916   Anisotropy =     8.6384

     30  H    Isotropic =    30.4074   Anisotropy =     8.5551

     31  H    Isotropic =    30.7137   Anisotropy =    10.5785

 The electronic state is 1-A.
 Alpha  occ. eigenvalues --  -19.24464 -10.29361 -10.25802 -10.24939 -10.24290
 Alpha  occ. eigenvalues --  -10.23917 -10.23695 -10.23670 -10.23629 -10.23602
 Alpha  occ. eigenvalues --  -10.23022  -1.04968  -0.85779  -0.82498  -0.76623
 Alpha  occ. eigenvalues --   -0.75636  -0.70626  -0.69369  -0.62343  -0.62115
 Alpha  occ. eigenvalues --   -0.57628  -0.56912  -0.51510  -0.50017  -0.46894
 Alpha  occ. eigenvalues --   -0.45215  -0.45107  -0.44171  -0.42437  -0.40863
 Alpha  occ. eigenvalues --   -0.40288  -0.40055  -0.39487  -0.38463  -0.37931
 Alpha  occ. eigenvalues --   -0.35905  -0.35184  -0.34755  -0.33931  -0.33248
 Alpha  occ. eigenvalues --   -0.32403  -0.31255  -0.30092  -0.27606
 Alpha virt. eigenvalues --    0.00566   0.01939   0.02166   0.02469   0.03637
 Alpha virt. eigenvalues --    0.04281   0.04417   0.05355   0.05821   0.06670
 Alpha virt. eigenvalues --    0.07039   0.07385   0.07965   0.09077   0.09457

 Mulliken atomic charges:
              1
     1  C    0.353101
     2  C    0.316610
     3  C   -0.271990
     4  C   -0.477701
     5  C   -0.491819
     6  C   -0.597120
     7  C   -0.759556
     8  O   -0.558812
     9  C    0.330244
    10  C   -0.715334
    11  C   -0.549561
    12  H    0.174649
    13  H    0.133065
    14  H    0.149596
    15  H    0.173018
    16  H    0.156217
    17  H    0.156819
    18  H    0.155837
    19  H    0.162684
    20  H    0.169902
    21  H    0.158858
    22  H    0.163786
    23  H    0.162118
    24  H    0.363753
    25  H    0.149072
    26  H    0.167079
    27  H    0.164048
    28  H    0.164994
    29  H    0.172379
    30  H    0.155825
    31  H    0.168240
 Sum of Mulliken atomic charges =   0.00000

 Dipole moment (field-independent basis, Debye):
    X=              1.5748    Y=              0.5577    Z=             -0.8486  Tot=              1.8738
 Quadrupole moment (field-independent basis, Debye-Ang):
   XX=            -70.4840   YY=            -73.5531   ZZ=            -72.3324
   XY=             -2.4121   XZ=              2.0282   YZ=              1.5019

 Normal termination of Gaussian 09 at Thu Sep 19 09:32:37 2024.
