 Gaussian 09, Revision C.01,
 Gaussian 09:  AM64L-G09RevC.01 23-Sep-2011

 --------------------------------------------------
 # mPW1PW91/6-31+G** nmr scrf=(pcm,solvent=benzene)
 --------------------------------------------------

 99/9=1/99;
 -------
 comment
 -------
 Charge =  0 Multiplicity = 1

                         Standard orientation:
 ---------------------------------------------------------------------
 Center     Atomic      Atomic             Coordinates (Angstroms)
 Number     Number       Type             X           Y           Z
 ---------------------------------------------------------------------
      1          6           0       -2.212901   -0.111987   -0.264586
      2          6           0       -0.135801    1.097684    0.618412
      3          6           0        0.113182   -1.063851   -0.684279
      4          6           0        0.703870   -0.189538    0.437998
      5          6           0       -1.367575   -1.386525   -0.431790
      6          6           0       -1.615189    0.770172    0.845644
      7          6           0       -3.685375   -0.435725    0.010793
      8          8           0       -0.080059    1.972917   -0.518701
      9          6           0        2.232721    0.082454    0.307640
     10          6           0        2.714257    0.386035   -1.123801
     11          6           0        3.054025   -1.079146    0.892500
     12          1           0       -2.153791    0.455602   -1.203818
     13          1           0        0.244462    1.635220    1.503439
     14          1           0        0.687274   -1.994419   -0.781955
     15          1           0        0.201181   -0.534392   -1.640459
     16          1           0        0.571006   -0.739382    1.384107
     17          1           0       -1.460988   -2.001858    0.477204
     18          1           0       -1.764583   -1.992276   -1.257608
     19          1           0       -1.711892    0.252629    1.811612
     20          1           0       -2.172634    1.711411    0.927153
     21          1           0       -3.796753   -1.002613    0.944819
     22          1           0       -4.284844    0.478043    0.103252
     23          1           0       -4.117411   -1.039199   -0.796828
     24          1           0        0.802039    2.371789   -0.539739
     25          1           0        2.450893    0.968470    0.927144
     26          1           0        2.650629   -0.505030   -1.758786
     27          1           0        2.124068    1.168406   -1.610505
     28          1           0        3.762911    0.706062   -1.113044
     29          1           0        2.859921   -2.013673    0.351218
     30          1           0        2.812029   -1.248647    1.948314
     31          1           0        4.129666   -0.876919    0.822898
 ---------------------------------------------------------------------

 SCF Done:  E(RmPW1PW91) =  -468.281985373     A.U. after   12 cycles

      1  C    Isotropic =   167.2940   Anisotropy =    14.9139

      2  C    Isotropic =   119.1253   Anisotropy =    32.5405

      3  C    Isotropic =   173.4725   Anisotropy =    19.0797

      4  C    Isotropic =   147.5253   Anisotropy =    14.6138

      5  C    Isotropic =   159.2584   Anisotropy =    19.9684

      6  C    Isotropic =   152.3606   Anisotropy =    22.1534

      7  C    Isotropic =   173.0596   Anisotropy =    37.9369

      8  O    Isotropic =   292.5524   Anisotropy =    73.1493

      9  C    Isotropic =   160.9632   Anisotropy =    19.9800

     10  C    Isotropic =   175.9209   Anisotropy =    25.5510

     11  C    Isotropic =   172.1333   Anisotropy =    37.8447

     12  H    Isotropic =    29.5512   Anisotropy =     5.5993

     13  H    Isotropic =    27.6468   Anisotropy =     5.5442

     14  H    Isotropic =    30.2360   Anisotropy =     8.5453

     15  H    Isotropic =    29.8577   Anisotropy =     5.5851

     16  H    Isotropic =    30.4570   Anisotropy =     4.9848

     17  H    Isotropic =    30.6900   Anisotropy =     6.8339

     18  H    Isotropic =    29.8904   Anisotropy =     8.8157

     19  H    Isotropic =    30.5334   Anisotropy =     6.5667

     20  H    Isotropic =    29.7598   Anisotropy =     8.0230

     21  H    Isotropic =    31.0919   Anisotropy =     8.4937

     22  H    Isotropic =    30.6460   Anisotropy =    10.7092

     23  H    Isotropic =    30.5625   Anisotropy =    10.5552

     24  H    Isotropic =    30.5464   Anisotropy =    17.2468

     25  H    Isotropic =    29.9668   Anisotropy =     6.4616

     26  H    Isotropic =    30.7999   Anisotropy =     7.0040

     27  H    Isotropic =    30.4554   Anisotropy =     7.2924

     28  H    Isotropic =    30.7524   Anisotropy =    10.8484

     29  H    Isotropic =    30.5462   Anisotropy =     7.0201

     30  H    Isotropic =    30.7271   Anisotropy =    10.0400

     31  H    Isotropic =    30.7140   Anisotropy =    10.6496

 The electronic state is 1-A.
 Alpha  occ. eigenvalues --  -19.24444 -10.29469 -10.25574 -10.24698 -10.24376
 Alpha  occ. eigenvalues --  -10.23692 -10.23644 -10.23616 -10.23508 -10.23493
 Alpha  occ. eigenvalues --  -10.23032  -1.04931  -0.85768  -0.82283  -0.76500
 Alpha  occ. eigenvalues --   -0.75659  -0.70410  -0.69269  -0.62971  -0.61653
 Alpha  occ. eigenvalues --   -0.57522  -0.56511  -0.51529  -0.49039  -0.47050
 Alpha  occ. eigenvalues --   -0.45915  -0.45540  -0.43513  -0.41993  -0.41626
 Alpha  occ. eigenvalues --   -0.40112  -0.39538  -0.39207  -0.38180  -0.37251
 Alpha  occ. eigenvalues --   -0.36535  -0.35353  -0.35155  -0.33523  -0.33090
 Alpha  occ. eigenvalues --   -0.32105  -0.31291  -0.29888  -0.27480
 Alpha virt. eigenvalues --    0.00396   0.01877   0.02090   0.02478   0.03626
 Alpha virt. eigenvalues --    0.04393   0.04629   0.04890   0.05880   0.06743
 Alpha virt. eigenvalues --    0.07008   0.07301   0.07542   0.08908   0.09382

 Mulliken atomic charges:
              1
     1  C    0.315079
     2  C    0.142410
     3  C   -0.333373
     4  C   -0.092823
     5  C   -0.496626
     6  C   -0.544950
     7  C   -0.749997
     8  O   -0.551874
     9  C    0.128972
    10  C   -0.546124
    11  C   -0.681318
    12  H    0.174611
    13  H    0.133504
    14  H    0.156566
    15  H    0.179438
    16  H    0.148102
    17  H    0.157253
    18  H    0.155905
    19  H    0.162480
    20  H    0.169329
    21  H    0.159033
    22  H    0.163545
    23  H    0.162005
    24  H    0.362138
    25  H    0.145989
    26  H    0.172333
    27  H    0.150229
    28  H    0.165668
    29  H    0.165917
    30  H    0.163398
    31  H    0.163183
 Sum of Mulliken atomic charges =   0.00000

 Dipole moment (field-independent basis, Debye):
    X=              1.3925    Y=             -0.4068    Z=              0.9776  Tot=              1.7493
 Quadrupole moment (field-independent basis, Debye-Ang):
   XX=            -71.0945   YY=            -72.7883   ZZ=            -72.0373
   XY=              3.3677   XZ=             -0.5147   YZ=              1.7411

 Normal termination of Gaussian 09 at Thu Sep 19 09:49:24 2024.
