 Gaussian 09, Revision C.01,
 Gaussian 09:  AM64L-G09RevC.01 23-Sep-2011

 --------------------------------------------------
 # mPW1PW91/6-31+G** nmr scrf=(pcm,solvent=benzene)
 --------------------------------------------------

 99/9=1/99;
 -------
 comment
 -------
 Charge =  0 Multiplicity = 1

                         Standard orientation:
 ---------------------------------------------------------------------
 Center     Atomic      Atomic             Coordinates (Angstroms)
 Number     Number       Type             X           Y           Z
 ---------------------------------------------------------------------
      1          6           0       -2.209565   -0.110402   -0.259339
      2          6           0       -0.126590    1.082160    0.632391
      3          6           0        0.125887   -1.035357   -0.722545
      4          6           0        0.709556   -0.196122    0.430870
      5          6           0       -1.354761   -1.370646   -0.481168
      6          6           0       -1.606548    0.739879    0.872930
      7          6           0       -3.677533   -0.454970    0.014501
      8          8           0        0.018776    1.915557   -0.526381
      9          6           0        2.242037    0.060721    0.346222
     10          6           0        2.738669    0.545571   -1.026106
     11          6           0        3.033362   -1.181743    0.790939
     12          1           0       -2.160510    0.489165   -1.179546
     13          1           0        0.265855    1.616533    1.514450
     14          1           0        0.699903   -1.962712   -0.841984
     15          1           0        0.221058   -0.479367   -1.662303
     16          1           0        0.550782   -0.769576    1.358641
     17          1           0       -1.443455   -2.023188    0.402048
     18          1           0       -1.753729   -1.943422   -1.329224
     19          1           0       -1.694136    0.200007    1.827700
     20          1           0       -2.181510    1.671163    0.995695
     21          1           0       -3.778634   -1.053657    0.929376
     22          1           0       -4.285145    0.449635    0.141412
     23          1           0       -4.109491   -1.034477   -0.810380
     24          1           0       -0.535602    2.699909   -0.391192
     25          1           0        2.460575    0.857893    1.073787
     26          1           0        2.622642   -0.233211   -1.789820
     27          1           0        2.191105    1.430854   -1.355712
     28          1           0        3.806335    0.792494   -0.974317
     29          1           0        2.859973   -2.031200    0.118323
     30          1           0        2.755673   -1.496756    1.804441
     31          1           0        4.111027   -0.979088    0.787488
 ---------------------------------------------------------------------

 SCF Done:  E(RmPW1PW91) =  -468.282853860     A.U. after   12 cycles

      1  C    Isotropic =   167.2011   Anisotropy =    15.0496

      2  C    Isotropic =   119.8658   Anisotropy =    33.9934

      3  C    Isotropic =   174.1848   Anisotropy =    18.1206

      4  C    Isotropic =   147.5239   Anisotropy =    16.1340

      5  C    Isotropic =   159.1449   Anisotropy =    20.0927

      6  C    Isotropic =   149.3785   Anisotropy =    26.2671

      7  C    Isotropic =   173.2691   Anisotropy =    37.6431

      8  O    Isotropic =   281.9781   Anisotropy =    81.9168

      9  C    Isotropic =   159.5556   Anisotropy =    19.5039

     10  C    Isotropic =   177.1291   Anisotropy =    26.6706

     11  C    Isotropic =   171.9879   Anisotropy =    38.0643

     12  H    Isotropic =    29.5075   Anisotropy =     5.4793

     13  H    Isotropic =    27.5456   Anisotropy =     5.4798

     14  H    Isotropic =    30.2426   Anisotropy =     8.7473

     15  H    Isotropic =    29.7475   Anisotropy =     5.5920

     16  H    Isotropic =    30.4179   Anisotropy =     4.7226

     17  H    Isotropic =    30.6630   Anisotropy =     6.8431

     18  H    Isotropic =    29.8722   Anisotropy =     8.7773

     19  H    Isotropic =    30.3616   Anisotropy =     6.3890

     20  H    Isotropic =    30.1532   Anisotropy =     7.5292

     21  H    Isotropic =    31.0354   Anisotropy =     8.5128

     22  H    Isotropic =    30.7065   Anisotropy =    10.6715

     23  H    Isotropic =    30.5515   Anisotropy =    10.5040

     24  H    Isotropic =    31.1780   Anisotropy =    18.5857

     25  H    Isotropic =    29.7658   Anisotropy =     6.7393

     26  H    Isotropic =    30.9226   Anisotropy =     6.7973

     27  H    Isotropic =    29.5650   Anisotropy =     7.6289

     28  H    Isotropic =    30.8999   Anisotropy =    10.7592

     29  H    Isotropic =    30.5528   Anisotropy =     6.8460

     30  H    Isotropic =    30.7664   Anisotropy =     9.8890

     31  H    Isotropic =    30.6787   Anisotropy =    10.5629

 The electronic state is 1-A.
 Alpha  occ. eigenvalues --  -19.24426 -10.29489 -10.24698 -10.24686 -10.24555
 Alpha  occ. eigenvalues --  -10.24194 -10.23709 -10.23436 -10.23300 -10.22962
 Alpha  occ. eigenvalues --  -10.22046  -1.04978  -0.85708  -0.81897  -0.76354
 Alpha  occ. eigenvalues --   -0.75521  -0.69504  -0.69311  -0.63211  -0.61442
 Alpha  occ. eigenvalues --   -0.57987  -0.55554  -0.51268  -0.48337  -0.46912
 Alpha  occ. eigenvalues --   -0.45991  -0.45567  -0.42826  -0.42281  -0.41348
 Alpha  occ. eigenvalues --   -0.40758  -0.39743  -0.38974  -0.37693  -0.36698
 Alpha  occ. eigenvalues --   -0.36222  -0.34812  -0.34701  -0.33516  -0.32240
 Alpha  occ. eigenvalues --   -0.32160  -0.31011  -0.29531  -0.27850
 Alpha virt. eigenvalues --    0.00493   0.01862   0.02097   0.02538   0.03636
 Alpha virt. eigenvalues --    0.04416   0.04641   0.04932   0.05872   0.06816
 Alpha virt. eigenvalues --    0.07154   0.07370   0.07588   0.08648   0.09245

 Mulliken atomic charges:
              1
     1  C    0.336678
     2  C    0.215966
     3  C   -0.354970
     4  C   -0.168726
     5  C   -0.461728
     6  C   -0.613407
     7  C   -0.735601
     8  O   -0.563134
     9  C    0.240333
    10  C   -0.653485
    11  C   -0.646093
    12  H    0.168738
    13  H    0.131135
    14  H    0.154750
    15  H    0.182538
    16  H    0.147874
    17  H    0.157521
    18  H    0.156053
    19  H    0.166293
    20  H    0.150887
    21  H    0.160760
    22  H    0.160755
    23  H    0.163528
    24  H    0.369503
    25  H    0.144031
    26  H    0.159205
    27  H    0.193709
    28  H    0.154637
    29  H    0.161335
    30  H    0.158299
    31  H    0.162613
 Sum of Mulliken atomic charges =   0.00000

 Dipole moment (field-independent basis, Debye):
    X=             -1.1876    Y=              0.4642    Z=              1.2282  Tot=              1.7704
 Quadrupole moment (field-independent basis, Debye-Ang):
   XX=            -73.1195   YY=            -68.7971   ZZ=            -72.5147
   XY=             -2.9244   XZ=              1.0034   YZ=              1.9397

 Normal termination of Gaussian 09 at Thu Sep 19 09:33:02 2024.
