 Gaussian 09, Revision C.01,
 Gaussian 09:  AM64L-G09RevC.01 23-Sep-2011

 --------------------------------------------------
 # mPW1PW91/6-31+G** nmr scrf=(pcm,solvent=benzene)
 --------------------------------------------------

 99/9=1/99;
 -------
 comment
 -------
 Charge =  0 Multiplicity = 1

                         Standard orientation:
 ---------------------------------------------------------------------
 Center     Atomic      Atomic             Coordinates (Angstroms)
 Number     Number       Type             X           Y           Z
 ---------------------------------------------------------------------
      1          6           0       -2.265426    0.081206    0.168397
      2          6           0       -0.023655   -1.106820   -0.206131
      3          6           0       -0.057987    1.313719    0.515092
      4          6           0        0.723182    0.240653   -0.274295
      5          6           0       -1.525414    1.424789    0.075098
      6          6           0       -1.493733   -0.977344   -0.634259
      7          6           0       -3.723058    0.190663   -0.290531
      8          8           0        0.086633   -1.585344    1.142243
      9          6           0        2.207524    0.138024    0.174382
     10          6           0        2.980255    1.435258   -0.122989
     11          6           0        2.943550   -1.053634   -0.460938
     12          1           0       -2.255571   -0.232398    1.222284
     13          1           0        0.467013   -1.819234   -0.886445
     14          1           0        0.424213    2.290677    0.401509
     15          1           0       -0.016121    1.062674    1.583074
     16          1           0        0.718600    0.529545   -1.338958
     17          1           0       -1.571063    1.785207   -0.965124
     18          1           0       -2.040799    2.179167    0.684956
     19          1           0       -1.525970   -0.722967   -1.704694
     20          1           0       -1.983104   -1.959753   -0.541974
     21          1           0       -3.784427    0.498327   -1.342742
     22          1           0       -4.246642   -0.768732   -0.195000
     23          1           0       -4.271810    0.931190    0.303877
     24          1           0       -0.399860   -2.422694    1.195684
     25          1           0        2.207453   -0.019392    1.261237
     26          1           0        2.987847    1.649849   -1.200328
     27          1           0        2.555945    2.305680    0.387147
     28          1           0        4.023664    1.344649    0.201385
     29          1           0        2.896615   -1.016867   -1.557956
     30          1           0        2.526608   -2.009356   -0.130379
     31          1           0        4.002923   -1.041910   -0.178454
 ---------------------------------------------------------------------

 SCF Done:  E(RmPW1PW91) =  -468.284456831     A.U. after   12 cycles

      1  C    Isotropic =   167.5678   Anisotropy =    14.0258

      2  C    Isotropic =   126.7481   Anisotropy =    47.1646

      3  C    Isotropic =   168.6215   Anisotropy =    20.2246

      4  C    Isotropic =   146.8725   Anisotropy =    16.1267

      5  C    Isotropic =   159.4089   Anisotropy =    20.9552

      6  C    Isotropic =   150.5730   Anisotropy =    25.8193

      7  C    Isotropic =   173.0974   Anisotropy =    37.9335

      8  O    Isotropic =   288.8185   Anisotropy =    86.9439

      9  C    Isotropic =   163.5475   Anisotropy =    18.9623

     10  C    Isotropic =   174.3309   Anisotropy =    32.8131

     11  C    Isotropic =   175.2524   Anisotropy =    29.7792

     12  H    Isotropic =    29.5767   Anisotropy =     5.6051

     13  H    Isotropic =    27.3883   Anisotropy =     4.8820

     14  H    Isotropic =    29.8814   Anisotropy =     8.7997

     15  H    Isotropic =    29.9749   Anisotropy =     5.9299

     16  H    Isotropic =    30.7497   Anisotropy =     4.3761

     17  H    Isotropic =    30.6133   Anisotropy =     6.8685

     18  H    Isotropic =    29.9353   Anisotropy =     8.9362

     19  H    Isotropic =    30.4196   Anisotropy =     6.3800

     20  H    Isotropic =    30.0646   Anisotropy =     7.4145

     21  H    Isotropic =    31.0491   Anisotropy =     8.5309

     22  H    Isotropic =    30.7061   Anisotropy =    10.6100

     23  H    Isotropic =    30.5597   Anisotropy =    10.5905

     24  H    Isotropic =    31.3694   Anisotropy =    18.9127

     25  H    Isotropic =    29.7782   Anisotropy =     5.0487

     26  H    Isotropic =    31.1099   Anisotropy =     8.4258

     27  H    Isotropic =    30.2641   Anisotropy =     8.5788

     28  H    Isotropic =    30.7115   Anisotropy =    10.6775

     29  H    Isotropic =    31.0612   Anisotropy =     8.3773

     30  H    Isotropic =    30.0509   Anisotropy =     8.3710

     31  H    Isotropic =    30.7643   Anisotropy =    10.5071

 The electronic state is 1-A.
 Alpha  occ. eigenvalues --  -19.24422 -10.29372 -10.24623 -10.24621 -10.24575
 Alpha  occ. eigenvalues --  -10.24184 -10.23675 -10.23426 -10.23296 -10.22930
 Alpha  occ. eigenvalues --  -10.22790  -1.04929  -0.85683  -0.82045  -0.76423
 Alpha  occ. eigenvalues --   -0.75485  -0.69815  -0.69405  -0.62853  -0.61482
 Alpha  occ. eigenvalues --   -0.57470  -0.56674  -0.51360  -0.48546  -0.47192
 Alpha  occ. eigenvalues --   -0.45205  -0.44754  -0.44094  -0.42711  -0.41020
 Alpha  occ. eigenvalues --   -0.40117  -0.39630  -0.38975  -0.38718  -0.36853
 Alpha  occ. eigenvalues --   -0.35683  -0.35122  -0.34432  -0.33847  -0.32458
 Alpha  occ. eigenvalues --   -0.32261  -0.31113  -0.29587  -0.27879
 Alpha virt. eigenvalues --    0.00477   0.01920   0.02134   0.02633   0.03549
 Alpha virt. eigenvalues --    0.04316   0.04905   0.05260   0.05717   0.06722
 Alpha virt. eigenvalues --    0.06962   0.07380   0.08066   0.08771   0.09593

 Mulliken atomic charges:
              1
     1  C    0.348094
     2  C    0.351987
     3  C   -0.314761
     4  C   -0.295954
     5  C   -0.452222
     6  C   -0.712884
     7  C   -0.745239
     8  O   -0.578542
     9  C    0.308776
    10  C   -0.647116
    11  C   -0.676965
    12  H    0.167441
    13  H    0.134570
    14  H    0.148984
    15  H    0.176663
    16  H    0.154099
    17  H    0.157052
    18  H    0.155893
    19  H    0.166742
    20  H    0.151254
    21  H    0.160561
    22  H    0.161043
    23  H    0.163864
    24  H    0.363914
    25  H    0.170680
    26  H    0.161717
    27  H    0.158716
    28  H    0.163287
    29  H    0.162553
    30  H    0.175000
    31  H    0.160794
 Sum of Mulliken atomic charges =   0.00000

 Dipole moment (field-independent basis, Debye):
    X=             -0.9614    Y=             -0.7596    Z=             -0.9764  Tot=              1.5667
 Quadrupole moment (field-independent basis, Debye-Ang):
   XX=            -72.9827   YY=            -68.0298   ZZ=            -73.4367
   XY=              2.3628   XZ=             -1.1180   YZ=              0.3262

 Normal termination of Gaussian 09 at Thu Sep 19 09:16:00 2024.
