 Gaussian 09, Revision C.01,
 Gaussian 09:  AM64L-G09RevC.01 23-Sep-2011

 --------------------------------------------------
 # mPW1PW91/6-31+G** nmr scrf=(pcm,solvent=benzene)
 --------------------------------------------------

 99/9=1/99;
 -------
 comment
 -------
 Charge =  0 Multiplicity = 1

                         Standard orientation:
 ---------------------------------------------------------------------
 Center     Atomic      Atomic             Coordinates (Angstroms)
 Number     Number       Type             X           Y           Z
 ---------------------------------------------------------------------
      1          6           0       -2.228108    0.022604    0.216088
      2          6           0        0.086884   -1.044250   -0.086231
      3          6           0       -0.127323    1.464797    0.131599
      4          6           0        0.668276    0.316246   -0.517832
      5          6           0       -1.625274    1.376712   -0.197415
      6          6           0       -1.415335   -1.123665   -0.410092
      7          6           0       -3.714131   -0.078286   -0.144788
      8          8           0        0.316559   -1.213286    1.320213
      9          6           0        2.208621    0.481449   -0.376424
     10          6           0        2.977813   -0.640172   -1.092946
     11          6           0        2.725926    0.647346    1.062865
     12          1           0       -2.129737   -0.064372    1.307728
     13          1           0        0.602949   -1.846250   -0.636873
     14          1           0        0.276261    2.427637   -0.209863
     15          1           0        0.003659    1.433558    1.219229
     16          1           0        0.470653    0.364757   -1.601742
     17          1           0       -1.772762    1.517991   -1.280005
     18          1           0       -2.169552    2.192177    0.297871
     19          1           0       -1.540858   -1.110788   -1.503247
     20          1           0       -1.808016   -2.095475   -0.071702
     21          1           0       -3.862459    0.000288   -1.229834
     22          1           0       -4.141470   -1.035107    0.179933
     23          1           0       -4.292858    0.724214    0.328304
     24          1           0       -0.095207   -2.051623    1.582435
     25          1           0        2.439086    1.417945   -0.908861
     26          1           0        2.879396   -1.595382   -0.563574
     27          1           0        2.622381   -0.785233   -2.121112
     28          1           0        4.047313   -0.403788   -1.141018
     29          1           0        2.526586   -0.245626    1.660716
     30          1           0        2.259459    1.499225    1.568904
     31          1           0        3.808602    0.825452    1.052069
 ---------------------------------------------------------------------

 SCF Done:  E(RmPW1PW91) =  -468.282480400     A.U. after   12 cycles

      1  C    Isotropic =   167.0477   Anisotropy =    15.0223

      2  C    Isotropic =   126.6050   Anisotropy =    53.9911

      3  C    Isotropic =   167.6119   Anisotropy =    20.4373

      4  C    Isotropic =   148.1967   Anisotropy =    15.6574

      5  C    Isotropic =   158.7562   Anisotropy =    20.2590

      6  C    Isotropic =   149.4657   Anisotropy =    26.9065

      7  C    Isotropic =   172.9144   Anisotropy =    38.1490

      8  O    Isotropic =   282.3255   Anisotropy =    88.5790

      9  C    Isotropic =   160.1485   Anisotropy =    17.6516

     10  C    Isotropic =   174.1976   Anisotropy =    33.2432

     11  C    Isotropic =   177.2960   Anisotropy =    24.9398

     12  H    Isotropic =    29.4790   Anisotropy =     5.3320

     13  H    Isotropic =    27.2780   Anisotropy =     4.9087

     14  H    Isotropic =    30.4599   Anisotropy =     8.7877

     15  H    Isotropic =    29.4141   Anisotropy =     5.2849

     16  H    Isotropic =    30.3714   Anisotropy =     4.7548

     17  H    Isotropic =    30.5759   Anisotropy =     6.9648

     18  H    Isotropic =    29.8541   Anisotropy =     8.9627

     19  H    Isotropic =    30.4324   Anisotropy =     6.4729

     20  H    Isotropic =    30.1322   Anisotropy =     7.2985

     21  H    Isotropic =    31.0250   Anisotropy =     8.5044

     22  H    Isotropic =    30.7119   Anisotropy =    10.6011

     23  H    Isotropic =    30.5400   Anisotropy =    10.5408

     24  H    Isotropic =    31.3097   Anisotropy =    18.5604

     25  H    Isotropic =    29.9090   Anisotropy =     7.6992

     26  H    Isotropic =    30.4354   Anisotropy =     6.9193

     27  H    Isotropic =    30.7541   Anisotropy =     9.7206

     28  H    Isotropic =    30.5224   Anisotropy =    10.5656

     29  H    Isotropic =    30.0790   Anisotropy =     6.2273

     30  H    Isotropic =    30.4119   Anisotropy =     7.9916

     31  H    Isotropic =    30.9739   Anisotropy =    10.8549

 The electronic state is 1-A.
 Alpha  occ. eigenvalues --  -19.24360 -10.29413 -10.24749 -10.24685 -10.24603
 Alpha  occ. eigenvalues --  -10.24202 -10.23705 -10.23439 -10.23306 -10.22978
 Alpha  occ. eigenvalues --  -10.22058  -1.04890  -0.85706  -0.81897  -0.76440
 Alpha  occ. eigenvalues --   -0.75473  -0.69504  -0.69313  -0.63157  -0.61650
 Alpha  occ. eigenvalues --   -0.57991  -0.55379  -0.51262  -0.48662  -0.46687
 Alpha  occ. eigenvalues --   -0.46095  -0.44760  -0.43492  -0.42589  -0.41191
 Alpha  occ. eigenvalues --   -0.40425  -0.39698  -0.38583  -0.38003  -0.37075
 Alpha  occ. eigenvalues --   -0.35741  -0.35216  -0.34977  -0.33327  -0.32116
 Alpha  occ. eigenvalues --   -0.32007  -0.31175  -0.29490  -0.27782
 Alpha virt. eigenvalues --    0.00436   0.01774   0.02093   0.02570   0.03603
 Alpha virt. eigenvalues --    0.04279   0.04649   0.05178   0.05561   0.06742
 Alpha virt. eigenvalues --    0.07042   0.07673   0.08155   0.08544   0.09651

 Mulliken atomic charges:
              1
     1  C    0.348226
     2  C    0.244674
     3  C   -0.312466
     4  C   -0.183669
     5  C   -0.475449
     6  C   -0.705186
     7  C   -0.738155
     8  O   -0.553043
     9  C    0.251014
    10  C   -0.656311
    11  C   -0.636208
    12  H    0.168214
    13  H    0.134552
    14  H    0.154495
    15  H    0.178219
    16  H    0.157975
    17  H    0.156794
    18  H    0.155763
    19  H    0.166445
    20  H    0.150972
    21  H    0.160781
    22  H    0.160934
    23  H    0.163608
    24  H    0.365724
    25  H    0.151012
    26  H    0.166900
    27  H    0.159793
    28  H    0.164805
    29  H    0.189931
    30  H    0.156812
    31  H    0.152845
 Sum of Mulliken atomic charges =   0.00000

 Dipole moment (field-independent basis, Debye):
    X=             -1.0182    Y=             -0.9994    Z=             -0.8829  Tot=              1.6778
 Quadrupole moment (field-independent basis, Debye-Ang):
   XX=            -73.8623   YY=            -67.8062   ZZ=            -73.0038
   XY=              1.5980   XZ=             -2.2181   YZ=             -1.4802

 Normal termination of Gaussian 09 at Thu Sep 19 09:30:24 2024.
