 Gaussian 09, Revision C.01,
 Gaussian 09:  AM64L-G09RevC.01 23-Sep-2011

 --------------------------------------------------
 # mPW1PW91/6-31+G** nmr scrf=(pcm,solvent=benzene)
 --------------------------------------------------

 99/9=1/99;
 -------
 comment
 -------
 Charge =  0 Multiplicity = 1

                         Standard orientation:
 ---------------------------------------------------------------------
 Center     Atomic      Atomic             Coordinates (Angstroms)
 Number     Number       Type             X           Y           Z
 ---------------------------------------------------------------------
      1          6           0        2.162040    0.091208   -0.170180
      2          6           0       -0.130484    1.093106   -0.671364
      3          6           0        0.323355   -1.318736   -1.221556
      4          6           0       -0.788286   -0.301495   -0.850319
      5          6           0        1.540466   -1.311441   -0.284859
      6          6           0        1.090784    1.111779    0.252671
      7          6           0        3.364320    0.111870    0.780281
      8          8           0       -1.028933    2.097763   -0.188758
      9          6           0       -1.770428   -0.804479    0.260196
     10          6           0       -3.188604   -0.233449    0.063401
     11          6           0       -1.350579   -0.601465    1.726684
     12          1           0        2.519361    0.375235   -1.173711
     13          1           0        0.230319    1.387856   -1.673485
     14          1           0        0.676770   -1.084153   -2.236671
     15          1           0       -0.109209   -2.325887   -1.277568
     16          1           0       -1.417795   -0.221095   -1.751091
     17          1           0        2.291776   -2.020637   -0.658146
     18          1           0        1.256721   -1.665584    0.715286
     19          1           0        1.506270    2.127354    0.241108
     20          1           0        0.780857    0.915292    1.284610
     21          1           0        4.140475   -0.591387    0.454965
     22          1           0        3.815384    1.110136    0.830626
     23          1           0        3.065607   -0.169237    1.798372
     24          1           0       -1.751575    2.177802   -0.830590
     25          1           0       -1.850664   -1.889969    0.095740
     26          1           0       -3.212335    0.841444    0.270286
     27          1           0       -3.551795   -0.397519   -0.958898
     28          1           0       -3.897873   -0.715925    0.746778
     29          1           0       -1.301568    0.462752    1.976184
     30          1           0       -0.382252   -1.055071    1.957621
     31          1           0       -2.092511   -1.064897    2.388908
 ---------------------------------------------------------------------

 SCF Done:  E(RmPW1PW91) =  -468.274733767     A.U. after   12 cycles

      1  C    Isotropic =   161.5048   Anisotropy =     8.6710

      2  C    Isotropic =   119.3564   Anisotropy =    49.1335

      3  C    Isotropic =   160.2113   Anisotropy =    18.5393

      4  C    Isotropic =   149.4799   Anisotropy =    16.6689

      5  C    Isotropic =   163.9731   Anisotropy =    18.9089

      6  C    Isotropic =   156.5512   Anisotropy =    29.2181

      7  C    Isotropic =   172.9860   Anisotropy =    37.6181

      8  O    Isotropic =   275.3401   Anisotropy =    80.6462

      9  C    Isotropic =   156.2628   Anisotropy =    25.0101

     10  C    Isotropic =   167.5278   Anisotropy =    40.4377

     11  C    Isotropic =   173.1101   Anisotropy =    20.8134

     12  H    Isotropic =    30.1368   Anisotropy =     7.5152

     13  H    Isotropic =    27.5085   Anisotropy =     4.7596

     14  H    Isotropic =    29.9584   Anisotropy =     8.9963

     15  H    Isotropic =    29.9971   Anisotropy =     8.5780

     16  H    Isotropic =    29.9012   Anisotropy =     5.8884

     17  H    Isotropic =    30.2712   Anisotropy =     9.4639

     18  H    Isotropic =    30.2736   Anisotropy =     5.2018

     19  H    Isotropic =    29.8701   Anisotropy =     7.6789

     20  H    Isotropic =    30.0354   Anisotropy =     4.3252

     21  H    Isotropic =    30.5203   Anisotropy =    10.7414

     22  H    Isotropic =    30.5342   Anisotropy =    10.5871

     23  H    Isotropic =    30.8439   Anisotropy =     7.8182

     24  H    Isotropic =    30.7995   Anisotropy =    16.2094

     25  H    Isotropic =    29.7803   Anisotropy =     6.4106

     26  H    Isotropic =    30.1409   Anisotropy =     5.7094

     27  H    Isotropic =    30.5820   Anisotropy =     9.2558

     28  H    Isotropic =    30.5646   Anisotropy =    10.8035

     29  H    Isotropic =    29.9924   Anisotropy =     4.9866

     30  H    Isotropic =    30.1832   Anisotropy =     6.9313

     31  H    Isotropic =    30.6072   Anisotropy =    10.4854

 The electronic state is 1-A.
 Alpha  occ. eigenvalues --  -19.24491 -10.29570 -10.25186 -10.25020 -10.25014
 Alpha  occ. eigenvalues --  -10.24335 -10.23927 -10.23494 -10.23298 -10.23082
 Alpha  occ. eigenvalues --  -10.22786  -1.04977  -0.85938  -0.81841  -0.76915
 Alpha  occ. eigenvalues --   -0.75420  -0.70312  -0.69324  -0.62434  -0.62053
 Alpha  occ. eigenvalues --   -0.58872  -0.55286  -0.51459  -0.48977  -0.47456
 Alpha  occ. eigenvalues --   -0.45624  -0.45080  -0.42991  -0.42841  -0.42280
 Alpha  occ. eigenvalues --   -0.40413  -0.39170  -0.39067  -0.38293  -0.37175
 Alpha  occ. eigenvalues --   -0.36809  -0.34819  -0.34109  -0.33866  -0.33218
 Alpha  occ. eigenvalues --   -0.31905  -0.31122  -0.30325  -0.27378
 Alpha virt. eigenvalues --    0.00380   0.01727   0.01969   0.02221   0.04038
 Alpha virt. eigenvalues --    0.04079   0.04696   0.04930   0.05325   0.06315
 Alpha virt. eigenvalues --    0.07363   0.07908   0.08297   0.08529   0.09172

 Mulliken atomic charges:
              1
     1  C    0.210171
     2  C   -0.154895
     3  C   -0.529433
     4  C   -0.019436
     5  C   -0.288239
     6  C   -0.358007
     7  C   -0.706146
     8  O   -0.482411
     9  C    0.293681
    10  C   -0.718385
    11  C   -0.625616
    12  H    0.156077
    13  H    0.143226
    14  H    0.162776
    15  H    0.156191
    16  H    0.144577
    17  H    0.156963
    18  H    0.153606
    19  H    0.166855
    20  H    0.167873
    21  H    0.161893
    22  H    0.163970
    23  H    0.162686
    24  H    0.357240
    25  H    0.143133
    26  H    0.166940
    27  H    0.158267
    28  H    0.162928
    29  H    0.184013
    30  H    0.151820
    31  H    0.157680
 Sum of Mulliken atomic charges =   0.00000

 Dipole moment (field-independent basis, Debye):
    X=             -0.0740    Y=             -1.1704    Z=             -1.5198  Tot=              1.9196
 Quadrupole moment (field-independent basis, Debye-Ang):
   XX=            -70.0784   YY=            -75.4254   ZZ=            -70.6095
   XY=             -0.0225   XZ=              1.7384   YZ=             -2.8068

 Normal termination of Gaussian 09 at Thu Sep 19 10:50:17 2024.
