 Gaussian 09, Revision C.01,
 Gaussian 09:  EM64L-G09RevC.01 23-Sep-2011

 --------------------------------------------------
 # mPW1PW91/6-31+G** nmr scrf=(pcm,solvent=benzene)
 --------------------------------------------------

 99/9=1/99;
 -------
 comment
 -------
 Charge =  0 Multiplicity = 1

                         Standard orientation:
 ---------------------------------------------------------------------
 Center     Atomic      Atomic             Coordinates (Angstroms)
 Number     Number       Type             X           Y           Z
 ---------------------------------------------------------------------
      1          6           0        2.166679    0.063430   -0.173502
      2          6           0       -0.128468    1.062282   -0.714866
      3          6           0        0.313245   -1.363528   -1.168518
      4          6           0       -0.792495   -0.328507   -0.836011
      5          6           0        1.526364   -1.334339   -0.227420
      6          6           0        1.102092    1.108912    0.205671
      7          6           0        3.370986    0.112620    0.773191
      8          8           0       -1.117975    2.016164   -0.316832
      9          6           0       -1.771616   -0.782455    0.299705
     10          6           0       -3.198789   -0.265937    0.033072
     11          6           0       -1.378210   -0.460386    1.752014
     12          1           0        2.524201    0.300320   -1.189086
     13          1           0        0.225226    1.315788   -1.730984
     14          1           0        0.672477   -1.168007   -2.189997
     15          1           0       -0.127029   -2.368316   -1.190296
     16          1           0       -1.423946   -0.270722   -1.733202
     17          1           0        2.270035   -2.069159   -0.564509
     18          1           0        1.231811   -1.638878    0.786104
     19          1           0        1.541526    2.117455    0.150479
     20          1           0        0.793501    0.961813    1.246136
     21          1           0        4.138702   -0.612048    0.476286
     22          1           0        3.833784    1.107008    0.780231
     23          1           0        3.071760   -0.122264    1.802719
     24          1           0       -0.683705    2.882603   -0.271981
     25          1           0       -1.814895   -1.879566    0.218065
     26          1           0       -3.231606    0.826353    0.072522
     27          1           0       -3.556116   -0.579493   -0.955620
     28          1           0       -3.899341   -0.661139    0.779369
     29          1           0       -1.362517    0.620393    1.922060
     30          1           0       -0.401553   -0.869671    2.029391
     31          1           0       -2.117247   -0.894328    2.436958
 ---------------------------------------------------------------------

 SCF Done:  E(RmPW1PW91) =  -468.274934483     A.U. after   12 cycles

      1  C    Isotropic =   161.6361   Anisotropy =    10.3335

      2  C    Isotropic =   119.7919   Anisotropy =    49.3037

      3  C    Isotropic =   159.9037   Anisotropy =    17.9993

      4  C    Isotropic =   152.4528   Anisotropy =    19.7393

      5  C    Isotropic =   164.1446   Anisotropy =    18.9777

      6  C    Isotropic =   153.1066   Anisotropy =    33.0323

      7  C    Isotropic =   173.0533   Anisotropy =    37.5050

      8  O    Isotropic =   274.3950   Anisotropy =    62.5641

      9  C    Isotropic =   156.0624   Anisotropy =    25.6806

     10  C    Isotropic =   168.1107   Anisotropy =    39.8029

     11  C    Isotropic =   172.6414   Anisotropy =    21.7469

     12  H    Isotropic =    30.1210   Anisotropy =     7.3553

     13  H    Isotropic =    27.5095   Anisotropy =     4.8281

     14  H    Isotropic =    29.9737   Anisotropy =     9.1060

     15  H    Isotropic =    29.9705   Anisotropy =     8.6426

     16  H    Isotropic =    29.5858   Anisotropy =     6.3658

     17  H    Isotropic =    30.2661   Anisotropy =     9.5067

     18  H    Isotropic =    30.2681   Anisotropy =     5.1824

     19  H    Isotropic =    30.2791   Anisotropy =     6.9277

     20  H    Isotropic =    29.9371   Anisotropy =     4.0813

     21  H    Isotropic =    30.5024   Anisotropy =    10.7333

     22  H    Isotropic =    30.6046   Anisotropy =    10.5319

     23  H    Isotropic =    30.8489   Anisotropy =     7.7990

     24  H    Isotropic =    30.9360   Anisotropy =    17.8255

     25  H    Isotropic =    29.7727   Anisotropy =     6.2423

     26  H    Isotropic =    29.6615   Anisotropy =     5.7610

     27  H    Isotropic =    30.5510   Anisotropy =     9.5111

     28  H    Isotropic =    30.7757   Anisotropy =    10.7493

     29  H    Isotropic =    29.9564   Anisotropy =     4.8237

     30  H    Isotropic =    30.2068   Anisotropy =     6.7519

     31  H    Isotropic =    30.6210   Anisotropy =    10.4749

 The electronic state is 1-A.
 Alpha  occ. eigenvalues --  -19.24488 -10.29602 -10.25249 -10.24732 -10.24683
 Alpha  occ. eigenvalues --  -10.24145 -10.23981 -10.23954 -10.23512 -10.22558
 Alpha  occ. eigenvalues --  -10.22104  -1.05024  -0.85945  -0.81624  -0.76777
 Alpha  occ. eigenvalues --   -0.75250  -0.70232  -0.68930  -0.63337  -0.61509
 Alpha  occ. eigenvalues --   -0.58256  -0.54676  -0.52355  -0.48941  -0.47314
 Alpha  occ. eigenvalues --   -0.45598  -0.45027  -0.43293  -0.42403  -0.40871
 Alpha  occ. eigenvalues --   -0.40220  -0.39596  -0.38988  -0.37992  -0.37157
 Alpha  occ. eigenvalues --   -0.36953  -0.35905  -0.34033  -0.33348  -0.32134
 Alpha  occ. eigenvalues --   -0.31643  -0.30983  -0.29886  -0.27807
 Alpha virt. eigenvalues --    0.00504   0.01760   0.01861   0.02246   0.03811
 Alpha virt. eigenvalues --    0.04338   0.04725   0.04898   0.05379   0.06250
 Alpha virt. eigenvalues --    0.07502   0.08033   0.08317   0.08765   0.09267

 Mulliken atomic charges:
              1
     1  C    0.189507
     2  C   -0.105850
     3  C   -0.507743
     4  C   -0.030791
     5  C   -0.294080
     6  C   -0.361523
     7  C   -0.711173
     8  O   -0.505760
     9  C    0.309890
    10  C   -0.722951
    11  C   -0.648870
    12  H    0.157253
    13  H    0.143854
    14  H    0.161818
    15  H    0.156326
    16  H    0.154928
    17  H    0.157058
    18  H    0.155807
    19  H    0.147034
    20  H    0.173586
    21  H    0.163492
    22  H    0.162088
    23  H    0.163165
    24  H    0.366173
    25  H    0.140194
    26  H    0.192449
    27  H    0.154227
    28  H    0.152149
    29  H    0.181455
    30  H    0.149338
    31  H    0.156948
 Sum of Mulliken atomic charges =   0.00000

 Dipole moment (field-independent basis, Debye):
    X=              1.8972    Y=              0.2672    Z=             -0.4444  Tot=              1.9668
 Quadrupole moment (field-independent basis, Debye-Ang):
   XX=            -75.7647   YY=            -67.7516   ZZ=            -72.1744
   XY=              3.1476   XZ=             -0.9685   YZ=             -0.2013

 Normal termination of Gaussian 09 at Thu Sep 19 10:49:39 2024.
