 Gaussian 09, Revision C.01,
 Gaussian 09:  EM64L-G09RevC.01 23-Sep-2011

 --------------------------------------------------
 # mPW1PW91/6-31+G** nmr scrf=(pcm,solvent=benzene)
 --------------------------------------------------

 99/9=1/99;
 -------
 comment
 -------
 Charge =  0 Multiplicity = 1

                         Standard orientation:
 ---------------------------------------------------------------------
 Center     Atomic      Atomic             Coordinates (Angstroms)
 Number     Number       Type             X           Y           Z
 ---------------------------------------------------------------------
      1          6           0        2.357370    0.276462    0.440859
      2          6           0        0.134122   -1.073443    0.388940
      3          6           0        0.149511    1.359957   -0.303750
      4          6           0       -0.686482    0.240936    0.351223
      5          6           0        1.502514    1.558120    0.397968
      6          6           0        1.516828   -0.879314    1.024566
      7          6           0        2.995072   -0.056954   -0.918085
      8          8           0        0.332995   -1.622805   -0.921894
      9          6           0       -2.081249    0.064734   -0.310742
     10          6           0       -2.933964    1.342356   -0.221624
     11          6           0       -2.879367   -1.111873    0.282776
     12          1           0        3.183643    0.455492    1.144482
     13          1           0       -0.403078   -1.808861    1.006703
     14          1           0       -0.399512    2.307351   -0.282354
     15          1           0        0.306074    1.112307   -1.361785
     16          1           0       -0.862252    0.519939    1.404409
     17          1           0        1.314877    1.895594    1.428476
     18          1           0        2.062185    2.365122   -0.093446
     19          1           0        1.353713   -0.688022    2.094806
     20          1           0        2.063794   -1.827466    0.952265
     21          1           0        3.624096    0.774271   -1.261205
     22          1           0        3.631870   -0.946154   -0.837203
     23          1           0        2.243938   -0.266756   -1.683108
     24          1           0       -0.536313   -1.858566   -1.280431
     25          1           0       -1.916269   -0.141069   -1.380409
     26          1           0       -3.095196    1.632547    0.825027
     27          1           0       -2.474404    2.189950   -0.737646
     28          1           0       -3.919074    1.178925   -0.674057
     29          1           0       -3.016827   -0.986621    1.364635
     30          1           0       -2.396289   -2.082807    0.125051
     31          1           0       -3.875067   -1.168625   -0.171854
 ---------------------------------------------------------------------

 SCF Done:  E(RmPW1PW91) =  -468.279915795     A.U. after   12 cycles

      1  C    Isotropic =   165.6102   Anisotropy =     4.3326

      2  C    Isotropic =   126.1651   Anisotropy =    52.2297

      3  C    Isotropic =   173.8197   Anisotropy =    19.1750

      4  C    Isotropic =   145.6801   Anisotropy =    14.7718

      5  C    Isotropic =   161.6645   Anisotropy =    12.4489

      6  C    Isotropic =   157.1109   Anisotropy =    10.8261

      7  C    Isotropic =   174.1616   Anisotropy =    32.5639

      8  O    Isotropic =   297.8343   Anisotropy =    66.8617

      9  C    Isotropic =   164.2986   Anisotropy =    18.7498

     10  C    Isotropic =   174.2433   Anisotropy =    32.2948

     11  C    Isotropic =   175.3452   Anisotropy =    29.5099

     12  H    Isotropic =    29.8099   Anisotropy =    10.1692

     13  H    Isotropic =    27.4174   Anisotropy =     5.2166

     14  H    Isotropic =    30.1347   Anisotropy =     8.8673

     15  H    Isotropic =    29.9662   Anisotropy =     5.1761

     16  H    Isotropic =    30.7258   Anisotropy =     4.4784

     17  H    Isotropic =    30.0031   Anisotropy =     8.7236

     18  H    Isotropic =    30.0271   Anisotropy =     9.6305

     19  H    Isotropic =    30.0271   Anisotropy =     8.6114

     20  H    Isotropic =    29.6876   Anisotropy =     8.3488

     21  H    Isotropic =    30.8708   Anisotropy =    11.1226

     22  H    Isotropic =    30.5974   Anisotropy =     9.8938

     23  H    Isotropic =    29.4997   Anisotropy =     4.2977

     24  H    Isotropic =    30.6078   Anisotropy =    17.1497

     25  H    Isotropic =    30.1593   Anisotropy =     4.7594

     26  H    Isotropic =    31.0299   Anisotropy =     8.5967

     27  H    Isotropic =    30.1819   Anisotropy =     8.6517

     28  H    Isotropic =    30.7042   Anisotropy =    10.5451

     29  H    Isotropic =    30.9752   Anisotropy =     8.7132

     30  H    Isotropic =    30.4705   Anisotropy =     8.6137

     31  H    Isotropic =    30.6975   Anisotropy =    10.5752

 The electronic state is 1-A.
 Alpha  occ. eigenvalues --  -19.24389 -10.29375 -10.25709 -10.24871 -10.24498
 Alpha  occ. eigenvalues --  -10.23934 -10.23774 -10.23631 -10.23581 -10.23562
 Alpha  occ. eigenvalues --  -10.22141  -1.04879  -0.85664  -0.82312  -0.76221
 Alpha  occ. eigenvalues --   -0.75584  -0.70606  -0.69192  -0.62909  -0.62233
 Alpha  occ. eigenvalues --   -0.57692  -0.55081  -0.51789  -0.50283  -0.46719
 Alpha  occ. eigenvalues --   -0.45767  -0.44022  -0.43939  -0.42981  -0.40825
 Alpha  occ. eigenvalues --   -0.40345  -0.39616  -0.39201  -0.38921  -0.37606
 Alpha  occ. eigenvalues --   -0.35876  -0.34952  -0.34685  -0.33677  -0.32987
 Alpha  occ. eigenvalues --   -0.32096  -0.31364  -0.29638  -0.27558
 Alpha virt. eigenvalues --    0.00397   0.01721   0.02205   0.02602   0.03963
 Alpha virt. eigenvalues --    0.04232   0.04352   0.04865   0.05793   0.06816
 Alpha virt. eigenvalues --    0.07380   0.07494   0.07841   0.08752   0.09326

 Mulliken atomic charges:
              1
     1  C    0.311728
     2  C    0.230307
     3  C   -0.230825
     4  C   -0.333574
     5  C   -0.540823
     6  C   -0.584694
     7  C   -0.709888
     8  O   -0.548539
     9  C    0.245434
    10  C   -0.707947
    11  C   -0.538990
    12  H    0.149543
    13  H    0.134720
    14  H    0.149392
    15  H    0.172224
    16  H    0.154099
    17  H    0.156737
    18  H    0.155429
    19  H    0.162314
    20  H    0.168191
    21  H    0.152530
    22  H    0.157066
    23  H    0.188293
    24  H    0.364368
    25  H    0.153698
    26  H    0.166640
    27  H    0.163770
    28  H    0.164714
    29  H    0.172504
    30  H    0.153179
    31  H    0.168403
 Sum of Mulliken atomic charges =   0.00000

 Dipole moment (field-independent basis, Debye):
    X=             -1.7079    Y=              0.4078    Z=              0.8478  Tot=              1.9498
 Quadrupole moment (field-independent basis, Debye-Ang):
   XX=            -71.5347   YY=            -72.9739   ZZ=            -71.5726
   XY=              2.8722   XZ=              2.9023   YZ=             -0.7127

 Normal termination of Gaussian 09 at Thu Sep 19 10:03:06 2024.
