 Gaussian 09, Revision C.01,
 Gaussian 09:  EM64L-G09RevC.01 23-Sep-2011

 --------------------------------------------------
 # mPW1PW91/6-31+G** nmr scrf=(pcm,solvent=benzene)
 --------------------------------------------------

 99/9=1/99;
 -------
 comment
 -------
 Charge =  0 Multiplicity = 1

                         Standard orientation:
 ---------------------------------------------------------------------
 Center     Atomic      Atomic             Coordinates (Angstroms)
 Number     Number       Type             X           Y           Z
 ---------------------------------------------------------------------
      1          6           0       -2.164740   -0.057824    0.056134
      2          6           0       -0.056962    1.258825    0.615430
      3          6           0       -0.189994   -1.121277    1.270220
      4          6           0        0.790818   -0.034969    0.761808
      5          6           0       -1.367384   -1.351295    0.308989
      6          6           0       -1.222022    1.086371   -0.360784
      7          6           0       -3.284936   -0.266301   -0.969102
      8          8           0        0.665436    2.419751    0.198745
      9          6           0        1.609763   -0.454650   -0.497592
     10          6           0        2.154987   -1.890609   -0.387066
     11          6           0        2.785272    0.500901   -0.777668
     12          1           0       -2.630639    0.230611    1.012300
     13          1           0       -0.488617    1.455414    1.613352
     14          1           0       -0.589061   -0.797802    2.242626
     15          1           0        0.338050   -2.060341    1.462078
     16          1           0        1.524816    0.142145    1.567104
     17          1           0       -2.034819   -2.122555    0.716155
     18          1           0       -0.997353   -1.741266   -0.650520
     19          1           0       -1.772091    2.034065   -0.413449
     20          1           0       -0.827736    0.901124   -1.369216
     21          1           0       -3.976414   -1.054801   -0.648298
     22          1           0       -3.866798    0.651541   -1.115647
     23          1           0       -2.874486   -0.559333   -1.944078
     24          1           0        1.396484    2.548340    0.823594
     25          1           0        0.947476   -0.423409   -1.373213
     26          1           0        2.755344   -2.017809    0.523872
     27          1           0        1.363494   -2.646376   -0.374484
     28          1           0        2.805248   -2.113582   -1.241023
     29          1           0        3.474994    0.528132    0.077996
     30          1           0        2.439975    1.516575   -0.975367
     31          1           0        3.359837    0.156287   -1.645951
 ---------------------------------------------------------------------

 SCF Done:  E(RmPW1PW91) =  -468.279336404     A.U. after   12 cycles

      1  C    Isotropic =   161.3536   Anisotropy =     8.6993

      2  C    Isotropic =   118.8017   Anisotropy =    47.8343

      3  C    Isotropic =   165.9943   Anisotropy =    15.1102

      4  C    Isotropic =   146.3520   Anisotropy =    15.7222

      5  C    Isotropic =   165.8321   Anisotropy =    23.3219

      6  C    Isotropic =   158.0094   Anisotropy =    36.4927

      7  C    Isotropic =   173.2080   Anisotropy =    37.7922

      8  O    Isotropic =   265.1401   Anisotropy =    76.7120

      9  C    Isotropic =   168.0409   Anisotropy =    10.8251

     10  C    Isotropic =   173.6897   Anisotropy =    30.1944

     11  C    Isotropic =   172.0252   Anisotropy =    35.8031

     12  H    Isotropic =    30.0625   Anisotropy =     7.5966

     13  H    Isotropic =    27.6227   Anisotropy =     4.4081

     14  H    Isotropic =    30.3890   Anisotropy =     9.1473

     15  H    Isotropic =    29.7147   Anisotropy =     7.7651

     16  H    Isotropic =    30.4164   Anisotropy =     6.0050

     17  H    Isotropic =    30.3486   Anisotropy =     9.7449

     18  H    Isotropic =    30.5639   Anisotropy =     4.8527

     19  H    Isotropic =    29.8894   Anisotropy =     8.0222

     20  H    Isotropic =    30.1960   Anisotropy =     3.4190

     21  H    Isotropic =    30.5501   Anisotropy =    10.7294

     22  H    Isotropic =    30.5592   Anisotropy =    10.6807

     23  H    Isotropic =    30.8684   Anisotropy =     7.8571

     24  H    Isotropic =    30.9271   Anisotropy =    15.7905

     25  H    Isotropic =    29.5074   Anisotropy =     5.5777

     26  H    Isotropic =    31.0244   Anisotropy =     8.7832

     27  H    Isotropic =    30.3529   Anisotropy =     8.1744

     28  H    Isotropic =    30.8406   Anisotropy =    10.2420

     29  H    Isotropic =    31.1475   Anisotropy =     8.3412

     30  H    Isotropic =    29.3045   Anisotropy =     7.4785

     31  H    Isotropic =    30.7657   Anisotropy =    10.7345

 The electronic state is 1-A.
 Alpha  occ. eigenvalues --  -19.24528 -10.29546 -10.25147 -10.25107 -10.25104
 Alpha  occ. eigenvalues --  -10.24268 -10.24035 -10.23698 -10.23336 -10.23246
 Alpha  occ. eigenvalues --  -10.22655  -1.05092  -0.86256  -0.81918  -0.76853
 Alpha  occ. eigenvalues --   -0.75541  -0.69898  -0.69487  -0.62498  -0.61945
 Alpha  occ. eigenvalues --   -0.59479  -0.54735  -0.51976  -0.49317  -0.46524
 Alpha  occ. eigenvalues --   -0.46166  -0.45551  -0.43935  -0.43076  -0.41345
 Alpha  occ. eigenvalues --   -0.40060  -0.38992  -0.38941  -0.38371  -0.37800
 Alpha  occ. eigenvalues --   -0.36182  -0.35212  -0.34511  -0.33859  -0.33363
 Alpha  occ. eigenvalues --   -0.31754  -0.31586  -0.30283  -0.27505
 Alpha virt. eigenvalues --    0.00656   0.01512   0.02018   0.02258   0.04047
 Alpha virt. eigenvalues --    0.04288   0.04840   0.05087   0.05317   0.06768
 Alpha virt. eigenvalues --    0.07184   0.07421   0.08134   0.08241   0.09183

 Mulliken atomic charges:
              1
     1  C    0.167980
     2  C   -0.139720
     3  C   -0.421722
     4  C   -0.211579
     5  C   -0.335248
     6  C   -0.335283
     7  C   -0.705306
     8  O   -0.489945
     9  C    0.440335
    10  C   -0.685118
    11  C   -0.723540
    12  H    0.158495
    13  H    0.140593
    14  H    0.160785
    15  H    0.162524
    16  H    0.147497
    17  H    0.157779
    18  H    0.162010
    19  H    0.170184
    20  H    0.168087
    21  H    0.162328
    22  H    0.164494
    23  H    0.163205
    24  H    0.363406
    25  H    0.157081
    26  H    0.167606
    27  H    0.162395
    28  H    0.162785
    29  H    0.158395
    30  H    0.191344
    31  H    0.158155
 Sum of Mulliken atomic charges =   0.00000

 Dipole moment (field-independent basis, Debye):
    X=              0.1286    Y=             -1.2034    Z=              1.3467  Tot=              1.8106
 Quadrupole moment (field-independent basis, Debye-Ang):
   XX=            -70.4702   YY=            -76.6291   ZZ=            -70.3080
   XY=              1.2442   XZ=              1.4562   YZ=              3.1252

 Normal termination of Gaussian 09 at Thu Sep 19 10:25:46 2024.
