 Gaussian 09, Revision C.01,
 Gaussian 09:  AM64L-G09RevC.01 23-Sep-2011

 --------------------------------------------------
 # mPW1PW91/6-31+G** nmr scrf=(pcm,solvent=benzene)
 --------------------------------------------------

 99/9=1/99;
 -------
 comment
 -------
 Charge =  0 Multiplicity = 1

                         Standard orientation:
 ---------------------------------------------------------------------
 Center     Atomic      Atomic             Coordinates (Angstroms)
 Number     Number       Type             X           Y           Z
 ---------------------------------------------------------------------
      1          6           0        2.353613    0.289475    0.434225
      2          6           0        0.124620   -1.054470    0.411555
      3          6           0        0.143881    1.365735   -0.319450
      4          6           0       -0.692185    0.252318    0.347448
      5          6           0        1.500928    1.572161    0.372372
      6          6           0        1.510937   -0.848997    1.046959
      7          6           0        2.975206   -0.074531   -0.924832
      8          8           0        0.207582   -1.571520   -0.925157
      9          6           0       -2.082286    0.063750   -0.320378
     10          6           0       -2.954168    1.324859   -0.190567
     11          6           0       -2.849596   -1.148031    0.235767
     12          1           0        3.188053    0.478937    1.125103
     13          1           0       -0.419034   -1.776417    1.040264
     14          1           0       -0.406493    2.312426   -0.299009
     15          1           0        0.291374    1.113879   -1.377236
     16          1           0       -0.866906    0.544955    1.396948
     17          1           0        1.321025    1.926430    1.398501
     18          1           0        2.061797    2.368919   -0.134263
     19          1           0        1.351592   -0.637478    2.114399
     20          1           0        2.066549   -1.799080    1.009280
     21          1           0        3.608317    0.743217   -1.290640
     22          1           0        3.609573   -0.965927   -0.834307
     23          1           0        2.213175   -0.285453   -1.679352
     24          1           0        0.778158   -2.355255   -0.900605
     25          1           0       -1.905995   -0.121754   -1.388173
     26          1           0       -3.132288    1.574562    0.864279
     27          1           0       -2.504390    2.199901   -0.669547
     28          1           0       -3.932095    1.164227   -0.659495
     29          1           0       -2.975420   -1.077925    1.325000
     30          1           0       -2.341651   -2.089466    0.007615
     31          1           0       -3.851705   -1.200160   -0.206096
 ---------------------------------------------------------------------

 SCF Done:  E(RmPW1PW91) =  -468.280136870     A.U. after   12 cycles

      1  C    Isotropic =   165.7113   Anisotropy =     4.1231

      2  C    Isotropic =   126.3339   Anisotropy =    51.6372

      3  C    Isotropic =   173.5068   Anisotropy =    19.3684

      4  C    Isotropic =   146.3284   Anisotropy =    15.6467

      5  C    Isotropic =   161.7356   Anisotropy =    12.4435

      6  C    Isotropic =   153.9187   Anisotropy =    13.0569

      7  C    Isotropic =   174.1599   Anisotropy =    32.6281

      8  O    Isotropic =   278.2961   Anisotropy =    68.8984

      9  C    Isotropic =   163.6691   Anisotropy =    18.7693

     10  C    Isotropic =   174.2086   Anisotropy =    32.9048

     11  C    Isotropic =   175.2308   Anisotropy =    30.7531

     12  H    Isotropic =    29.8115   Anisotropy =    10.1567

     13  H    Isotropic =    27.3904   Anisotropy =     5.1699

     14  H    Isotropic =    30.0822   Anisotropy =     8.8302

     15  H    Isotropic =    29.8720   Anisotropy =     5.2855

     16  H    Isotropic =    30.7154   Anisotropy =     4.4684

     17  H    Isotropic =    29.9852   Anisotropy =     8.7237

     18  H    Isotropic =    29.9930   Anisotropy =     9.6174

     19  H    Isotropic =    29.8611   Anisotropy =     8.2180

     20  H    Isotropic =    30.1122   Anisotropy =     7.8327

     21  H    Isotropic =    30.7653   Anisotropy =    11.1114

     22  H    Isotropic =    30.7060   Anisotropy =     9.7760

     23  H    Isotropic =    29.4284   Anisotropy =     4.3269

     24  H    Isotropic =    31.2899   Anisotropy =    17.2303

     25  H    Isotropic =    29.7346   Anisotropy =     4.9792

     26  H    Isotropic =    31.1097   Anisotropy =     8.4877

     27  H    Isotropic =    30.2277   Anisotropy =     8.5429

     28  H    Isotropic =    30.7401   Anisotropy =    10.5516

     29  H    Isotropic =    31.0553   Anisotropy =     8.4711

     30  H    Isotropic =    30.0591   Anisotropy =     8.4501

     31  H    Isotropic =    30.7690   Anisotropy =    10.4950

 The electronic state is 1-A.
 Alpha  occ. eigenvalues --  -19.24320 -10.29375 -10.24851 -10.24607 -10.24535
 Alpha  occ. eigenvalues --  -10.24308 -10.23714 -10.23405 -10.22909 -10.22745
 Alpha  occ. eigenvalues --  -10.22710  -1.04851  -0.85575  -0.81895  -0.76095
 Alpha  occ. eigenvalues --   -0.75509  -0.69792  -0.69445  -0.62908  -0.62090
 Alpha  occ. eigenvalues --   -0.56870  -0.56099  -0.50858  -0.49036  -0.46960
 Alpha  occ. eigenvalues --   -0.45695  -0.44540  -0.43598  -0.43032  -0.40949
 Alpha  occ. eigenvalues --   -0.40225  -0.39669  -0.38786  -0.38375  -0.36802
 Alpha  occ. eigenvalues --   -0.35810  -0.35197  -0.34139  -0.33780  -0.32508
 Alpha  occ. eigenvalues --   -0.32028  -0.31203  -0.29507  -0.27453
 Alpha virt. eigenvalues --    0.00277   0.02053   0.02134   0.02551   0.03801
 Alpha virt. eigenvalues --    0.04209   0.04761   0.05059   0.05437   0.06786
 Alpha virt. eigenvalues --    0.07252   0.07650   0.07785   0.08694   0.09292

 Mulliken atomic charges:
              1
     1  C    0.309458
     2  C    0.226288
     3  C   -0.287264
     4  C   -0.124868
     5  C   -0.512356
     6  C   -0.656026
     7  C   -0.733259
     8  O   -0.568627
     9  C    0.229947
    10  C   -0.626842
    11  C   -0.670985
    12  H    0.150987
    13  H    0.135051
    14  H    0.149580
    15  H    0.175508
    16  H    0.152988
    17  H    0.157575
    18  H    0.155944
    19  H    0.166751
    20  H    0.149808
    21  H    0.158378
    22  H    0.155172
    23  H    0.189866
    24  H    0.364204
    25  H    0.171375
    26  H    0.161482
    27  H    0.158832
    28  H    0.163125
    29  H    0.162045
    30  H    0.175362
    31  H    0.160500
 Sum of Mulliken atomic charges =   0.00000

 Dipole moment (field-independent basis, Debye):
    X=              0.9424    Y=             -0.5740    Z=              1.2814  Tot=              1.6910
 Quadrupole moment (field-independent basis, Debye-Ang):
   XX=            -72.1127   YY=            -68.6660   ZZ=            -73.1825
   XY=             -2.4708   XZ=              0.1688   YZ=             -0.8613

 Normal termination of Gaussian 09 at Thu Sep 19 09:51:41 2024.
