 Gaussian 09, Revision C.01,
 Gaussian 09:  AM64L-G09RevC.01 23-Sep-2011

 --------------------------------------------------
 # mPW1PW91/6-31+G** nmr scrf=(pcm,solvent=benzene)
 --------------------------------------------------

 99/9=1/99;
 -------
 comment
 -------
 Charge =  0 Multiplicity = 1

                         Standard orientation:
 ---------------------------------------------------------------------
 Center     Atomic      Atomic             Coordinates (Angstroms)
 Number     Number       Type             X           Y           Z
 ---------------------------------------------------------------------
      1          6           0        2.168027    0.077402   -0.170706
      2          6           0       -0.129418    1.092348   -0.684782
      3          6           0        0.317470   -1.331722   -1.200451
      4          6           0       -0.790696   -0.304243   -0.848537
      5          6           0        1.534131   -1.320960   -0.262873
      6          6           0        1.103115    1.113141    0.233857
      7          6           0        3.372852    0.104615    0.776389
      8          8           0       -1.052763    2.129955   -0.338658
      9          6           0       -1.784512   -0.793281    0.258090
     10          6           0       -3.197170   -0.221663    0.025055
     11          6           0       -1.379921   -0.594544    1.731233
     12          1           0        2.523982    0.344239   -1.179137
     13          1           0        0.216650    1.379219   -1.686983
     14          1           0        0.674641   -1.111457   -2.217438
     15          1           0       -0.118428   -2.338135   -1.245803
     16          1           0       -1.415698   -0.221999   -1.748406
     17          1           0        2.279795   -2.042381   -0.623646
     18          1           0        1.247948   -1.657129    0.743222
     19          1           0        1.527058    2.125249    0.206835
     20          1           0        0.802823    0.928603    1.274595
     21          1           0        4.143043   -0.608856    0.459483
     22          1           0        3.831274    1.100222    0.810321
     23          1           0        3.075548   -0.159754    1.799530
     24          1           0       -1.235973    2.051489    0.609967
     25          1           0       -1.862622   -1.880926    0.110427
     26          1           0       -3.200199    0.871012    0.080327
     27          1           0       -3.572671   -0.497298   -0.967368
     28          1           0       -3.904365   -0.609235    0.768756
     29          1           0       -1.362448    0.463435    2.023253
     30          1           0       -0.398816   -1.017569    1.964361
     31          1           0       -2.112701   -1.084935    2.383324
 ---------------------------------------------------------------------

 SCF Done:  E(RmPW1PW91) =  -468.273677164     A.U. after   12 cycles

      1  C    Isotropic =   160.8756   Anisotropy =     9.4707

      2  C    Isotropic =   119.4712   Anisotropy =    51.6879

      3  C    Isotropic =   159.8421   Anisotropy =    18.5357

      4  C    Isotropic =   151.6753   Anisotropy =    13.3182

      5  C    Isotropic =   163.9747   Anisotropy =    18.8177

      6  C    Isotropic =   153.5064   Anisotropy =    34.2065

      7  C    Isotropic =   172.9739   Anisotropy =    37.6549

      8  O    Isotropic =   269.4730   Anisotropy =    27.3996

      9  C    Isotropic =   156.7310   Anisotropy =    25.7153

     10  C    Isotropic =   168.5040   Anisotropy =    38.2119

     11  C    Isotropic =   171.1974   Anisotropy =    20.3676

     12  H    Isotropic =    30.0725   Anisotropy =     7.4135

     13  H    Isotropic =    27.7210   Anisotropy =     4.6450

     14  H    Isotropic =    29.9421   Anisotropy =     9.0278

     15  H    Isotropic =    30.0234   Anisotropy =     8.5958

     16  H    Isotropic =    29.6373   Anisotropy =     6.0552

     17  H    Isotropic =    30.2594   Anisotropy =     9.4421

     18  H    Isotropic =    30.3336   Anisotropy =     5.1321

     19  H    Isotropic =    29.8119   Anisotropy =     7.1948

     20  H    Isotropic =    30.4067   Anisotropy =     3.8292

     21  H    Isotropic =    30.5142   Anisotropy =    10.7388

     22  H    Isotropic =    30.5585   Anisotropy =    10.5340

     23  H    Isotropic =    30.9089   Anisotropy =     7.7468

     24  H    Isotropic =    31.0963   Anisotropy =    12.0003

     25  H    Isotropic =    29.7373   Anisotropy =     6.3967

     26  H    Isotropic =    29.9343   Anisotropy =     5.7307

     27  H    Isotropic =    30.4213   Anisotropy =     9.6400

     28  H    Isotropic =    30.7368   Anisotropy =    10.6560

     29  H    Isotropic =    30.8734   Anisotropy =     5.2806

     30  H    Isotropic =    29.9976   Anisotropy =     6.8248

     31  H    Isotropic =    30.4024   Anisotropy =    10.4409

 The electronic state is 1-A.
 Alpha  occ. eigenvalues --  -19.24461 -10.29530 -10.25490 -10.25282 -10.24848
 Alpha  occ. eigenvalues --  -10.24319 -10.24094 -10.24050 -10.23946 -10.23527
 Alpha  occ. eigenvalues --  -10.22937  -1.04982  -0.86031  -0.82119  -0.77121
 Alpha  occ. eigenvalues --   -0.75353  -0.70848  -0.69487  -0.63520  -0.62086
 Alpha  occ. eigenvalues --   -0.58532  -0.56372  -0.50817  -0.48343  -0.47615
 Alpha  occ. eigenvalues --   -0.46038  -0.45284  -0.43164  -0.43022  -0.42024
 Alpha  occ. eigenvalues --   -0.41549  -0.39776  -0.39405  -0.38297  -0.37538
 Alpha  occ. eigenvalues --   -0.37194  -0.35414  -0.34816  -0.33793  -0.33424
 Alpha  occ. eigenvalues --   -0.31937  -0.31255  -0.30212  -0.27420
 Alpha virt. eigenvalues --    0.00704   0.01427   0.02039   0.02395   0.03739
 Alpha virt. eigenvalues --    0.04402   0.04652   0.04838   0.05320   0.05892
 Alpha virt. eigenvalues --    0.07263   0.07867   0.08276   0.08643   0.08793

 Mulliken atomic charges:
              1
     1  C    0.219889
     2  C   -0.319437
     3  C   -0.499338
     4  C    0.165783
     5  C   -0.300823
     6  C   -0.336044
     7  C   -0.709238
     8  O   -0.444047
     9  C    0.025327
    10  C   -0.644334
    11  C   -0.535558
    12  H    0.158946
    13  H    0.158891
    14  H    0.164182
    15  H    0.155312
    16  H    0.156594
    17  H    0.158220
    18  H    0.151259
    19  H    0.172328
    20  H    0.156824
    21  H    0.163564
    22  H    0.164396
    23  H    0.161405
    24  H    0.348285
    25  H    0.147635
    26  H    0.176659
    27  H    0.162300
    28  H    0.156252
    29  H    0.136083
    30  H    0.160353
    31  H    0.168331
 Sum of Mulliken atomic charges =   0.00000

 Dipole moment (field-independent basis, Debye):
    X=              0.8830    Y=             -1.7026    Z=              0.9062  Tot=              2.1212
 Quadrupole moment (field-independent basis, Debye-Ang):
   XX=            -72.7386   YY=            -76.7957   ZZ=            -70.4576
   XY=              2.8207   XZ=             -2.8489   YZ=              3.0449

 Normal termination of Gaussian 09 at Thu Sep 19 10:51:21 2024.
