 Gaussian 09, Revision C.01,
 Gaussian 09:  AM64L-G09RevC.01 23-Sep-2011

 --------------------------------------------------
 # mPW1PW91/6-31+G** nmr scrf=(pcm,solvent=benzene)
 --------------------------------------------------

 99/9=1/99;
 -------
 comment
 -------
 Charge =  0 Multiplicity = 1

                         Standard orientation:
 ---------------------------------------------------------------------
 Center     Atomic      Atomic             Coordinates (Angstroms)
 Number     Number       Type             X           Y           Z
 ---------------------------------------------------------------------
      1          6           0       -1.885489   -0.595302   -0.792943
      2          6           0       -0.226343    1.259624   -0.020517
      3          6           0       -0.128108   -1.021395    1.022885
      4          6           0        0.722509    0.192432    0.586201
      5          6           0       -0.934869   -1.622390   -0.138643
      6          6           0       -1.113207    0.698809   -1.141343
      7          6           0       -3.144509   -0.336880    0.052148
      8          8           0       -1.097657    1.797555    0.985386
      9          6           0        1.927414   -0.147141   -0.340902
     10          6           0        2.742857   -1.347174    0.171263
     11          6           0        2.870496    1.058199   -0.515809
     12          1           0       -2.228239   -1.025456   -1.745453
     13          1           0        0.364951    2.085037   -0.443006
     14          1           0       -0.818461   -0.682156    1.803632
     15          1           0        0.501266   -1.788809    1.485872
     16          1           0        1.160561    0.635937    1.497915
     17          1           0       -1.512921   -2.485393    0.217473
     18          1           0       -0.244269   -2.011109   -0.900707
     19          1           0       -1.812392    1.486211   -1.448729
     20          1           0       -0.465456    0.503302   -2.006610
     21          1           0       -2.905584    0.115003    1.017608
     22          1           0       -3.822044    0.350679   -0.468541
     23          1           0       -3.689635   -1.273195    0.226602
     24          1           0       -0.537259    2.154804    1.692460
     25          1           0        1.542859   -0.412924   -1.335609
     26          1           0        3.088373   -1.179652    1.200158
     27          1           0        2.169976   -2.279164    0.158253
     28          1           0        3.630843   -1.499322   -0.453402
     29          1           0        3.291761    1.365504    0.450798
     30          1           0        2.373018    1.928916   -0.953875
     31          1           0        3.709409    0.798661   -1.171959
 ---------------------------------------------------------------------

 SCF Done:  E(RmPW1PW91) =  -468.277123405     A.U. after   12 cycles

      1  C    Isotropic =   165.1003   Anisotropy =     2.5441

      2  C    Isotropic =   124.9639   Anisotropy =    56.5961

      3  C    Isotropic =   176.7024   Anisotropy =    19.0987

      4  C    Isotropic =   143.5821   Anisotropy =    26.3671

      5  C    Isotropic =   167.5913   Anisotropy =    18.5113

      6  C    Isotropic =   162.8642   Anisotropy =    14.9136

      7  C    Isotropic =   173.3119   Anisotropy =    34.2575

      8  O    Isotropic =   269.7721   Anisotropy =   108.8554

      9  C    Isotropic =   167.0155   Anisotropy =    13.2654

     10  C    Isotropic =   174.3324   Anisotropy =    29.5032

     11  C    Isotropic =   173.7170   Anisotropy =    34.6386

     12  H    Isotropic =    29.8155   Anisotropy =     9.6608

     13  H    Isotropic =    27.4234   Anisotropy =     6.7354

     14  H    Isotropic =    29.3606   Anisotropy =     7.0084

     15  H    Isotropic =    30.1954   Anisotropy =     8.2778

     16  H    Isotropic =    30.7850   Anisotropy =     5.3437

     17  H    Isotropic =    30.4001   Anisotropy =    10.0103

     18  H    Isotropic =    29.8875   Anisotropy =     6.7229

     19  H    Isotropic =    29.9571   Anisotropy =     8.6273

     20  H    Isotropic =    29.8808   Anisotropy =     7.0634

     21  H    Isotropic =    29.3225   Anisotropy =     4.6938

     22  H    Isotropic =    30.5683   Anisotropy =     9.9419

     23  H    Isotropic =    30.8705   Anisotropy =    11.0828

     24  H    Isotropic =    31.2518   Anisotropy =    17.4790

     25  H    Isotropic =    29.8205   Anisotropy =     5.3487

     26  H    Isotropic =    31.0374   Anisotropy =     8.7553

     27  H    Isotropic =    30.2587   Anisotropy =     8.2345

     28  H    Isotropic =    30.7736   Anisotropy =    10.3841

     29  H    Isotropic =    31.1060   Anisotropy =     8.6894

     30  H    Isotropic =    30.3110   Anisotropy =     8.7840

     31  H    Isotropic =    30.6972   Anisotropy =    10.6010

 The electronic state is 1-A.
 Alpha  occ. eigenvalues --  -19.24324 -10.29398 -10.25522 -10.25020 -10.24585
 Alpha  occ. eigenvalues --  -10.23807 -10.23618 -10.23581 -10.23520 -10.23467
 Alpha  occ. eigenvalues --  -10.22152  -1.04848  -0.85777  -0.81858  -0.76196
 Alpha  occ. eigenvalues --   -0.75491  -0.70317  -0.69200  -0.62993  -0.62131
 Alpha  occ. eigenvalues --   -0.58483  -0.54009  -0.50903  -0.50624  -0.47542
 Alpha  occ. eigenvalues --   -0.45830  -0.44119  -0.43475  -0.42093  -0.41151
 Alpha  occ. eigenvalues --   -0.40524  -0.39538  -0.39457  -0.38155  -0.37220
 Alpha  occ. eigenvalues --   -0.36386  -0.35666  -0.34438  -0.33593  -0.33184
 Alpha  occ. eigenvalues --   -0.31405  -0.30944  -0.29801  -0.27458
 Alpha virt. eigenvalues --    0.00519   0.01666   0.02092   0.02349   0.04021
 Alpha virt. eigenvalues --    0.04218   0.04488   0.05006   0.05192   0.07048
 Alpha virt. eigenvalues --    0.07211   0.07359   0.08240   0.08670   0.09152

 Mulliken atomic charges:
              1
     1  C    0.282789
     2  C    0.137248
     3  C   -0.366660
     4  C   -0.231681
     5  C   -0.385165
     6  C   -0.463995
     7  C   -0.718119
     8  O   -0.522128
     9  C    0.241873
    10  C   -0.659940
    11  C   -0.676956
    12  H    0.148590
    13  H    0.121959
    14  H    0.173226
    15  H    0.153448
    16  H    0.135963
    17  H    0.154048
    18  H    0.156259
    19  H    0.167438
    20  H    0.160680
    21  H    0.187236
    22  H    0.156939
    23  H    0.152033
    24  H    0.354184
    25  H    0.155855
    26  H    0.168303
    27  H    0.165339
    28  H    0.162957
    29  H    0.165999
    30  H    0.156087
    31  H    0.166191
 Sum of Mulliken atomic charges =   0.00000

 Dipole moment (field-independent basis, Debye):
    X=              1.8982    Y=             -0.1830    Z=             -0.0715  Tot=              1.9083
 Quadrupole moment (field-independent basis, Debye-Ang):
   XX=            -75.5764   YY=            -72.2882   ZZ=            -69.3389
   XY=              3.1520   XZ=              1.8023   YZ=              1.3477

 Normal termination of Gaussian 09 at Thu Sep 19 08:15:20 2024.
