 Gaussian 09, Revision C.01,
 Gaussian 09:  AM64L-G09RevC.01 23-Sep-2011

 --------------------------------------------------
 # mPW1PW91/6-31+G** nmr scrf=(pcm,solvent=benzene)
 --------------------------------------------------

 99/9=1/99;
 -------
 comment
 -------
 Charge =  0 Multiplicity = 1

                         Standard orientation:
 ---------------------------------------------------------------------
 Center     Atomic      Atomic             Coordinates (Angstroms)
 Number     Number       Type             X           Y           Z
 ---------------------------------------------------------------------
      1          6           0        2.295753   -0.082486    0.324724
      2          6           0       -0.073364    0.885205    0.307521
      3          6           0        0.261993   -1.576925   -0.029635
      4          6           0       -0.628558   -0.367008   -0.390661
      5          6           0        1.745097   -1.348135   -0.352414
      6          6           0        1.404522    1.117157   -0.036291
      7          6           0        3.764473    0.171085   -0.033290
      8          8           0       -0.864698    2.013207   -0.080807
      9          6           0       -2.133311   -0.669159   -0.113892
     10          6           0       -3.077605    0.116688   -1.038899
     11          6           0       -2.540444   -0.483362    1.357129
     12          1           0        2.232931   -0.232599    1.414787
     13          1           0       -0.155095    0.738608    1.398213
     14          1           0       -0.102518   -2.461382   -0.567288
     15          1           0        0.155748   -1.804006    1.041659
     16          1           0       -0.524247   -0.193648   -1.473142
     17          1           0        1.869368   -1.250808   -1.441866
     18          1           0        2.335656   -2.223118   -0.049257
     19          1           0        1.480166    1.327090   -1.113134
     20          1           0        1.760130    2.018873    0.486279
     21          1           0        3.883701    0.329705   -1.112789
     22          1           0        4.153515    1.059622    0.478580
     23          1           0        4.394287   -0.681033    0.249253
     24          1           0       -0.487304    2.794850    0.352874
     25          1           0       -2.268657   -1.735135   -0.354041
     26          1           0       -2.994496    1.192018   -0.862541
     27          1           0       -2.842186   -0.071292   -2.093803
     28          1           0       -4.119428   -0.185236   -0.872224
     29          1           0       -2.515471    0.574940    1.639564
     30          1           0       -1.886783   -1.036383    2.042612
     31          1           0       -3.563071   -0.845085    1.516968
 ---------------------------------------------------------------------

 SCF Done:  E(RmPW1PW91) =  -468.284159349     A.U. after   12 cycles

      1  C    Isotropic =   162.3281   Anisotropy =    10.4537

      2  C    Isotropic =   122.3656   Anisotropy =    53.8573

      3  C    Isotropic =   162.5003   Anisotropy =    23.9436

      4  C    Isotropic =   147.0198   Anisotropy =    13.8365

      5  C    Isotropic =   160.1832   Anisotropy =    20.7797

      6  C    Isotropic =   149.0652   Anisotropy =    38.2770

      7  C    Isotropic =   173.1768   Anisotropy =    37.9646

      8  O    Isotropic =   272.7104   Anisotropy =    61.6452

      9  C    Isotropic =   158.6351   Anisotropy =    22.9291

     10  C    Isotropic =   170.6233   Anisotropy =    36.5641

     11  C    Isotropic =   178.7624   Anisotropy =    23.4768

     12  H    Isotropic =    30.1305   Anisotropy =     6.4122

     13  H    Isotropic =    27.9115   Anisotropy =     2.1710

     14  H    Isotropic =    30.1997   Anisotropy =     8.7525

     15  H    Isotropic =    30.2490   Anisotropy =     6.0109

     16  H    Isotropic =    30.2791   Anisotropy =     3.7134

     17  H    Isotropic =    30.5832   Anisotropy =     6.9465

     18  H    Isotropic =    30.0367   Anisotropy =     9.1779

     19  H    Isotropic =    30.4571   Anisotropy =     4.6854

     20  H    Isotropic =    30.0882   Anisotropy =     6.3953

     21  H    Isotropic =    30.9299   Anisotropy =     8.4001

     22  H    Isotropic =    30.6315   Anisotropy =    10.5019

     23  H    Isotropic =    30.5420   Anisotropy =    10.6521

     24  H    Isotropic =    31.0080   Anisotropy =    18.1084

     25  H    Isotropic =    30.1209   Anisotropy =     6.6396

     26  H    Isotropic =    29.7416   Anisotropy =     5.7273

     27  H    Isotropic =    30.5455   Anisotropy =     9.3530

     28  H    Isotropic =    30.7551   Anisotropy =    11.0794

     29  H    Isotropic =    30.5131   Anisotropy =     6.9937

     30  H    Isotropic =    30.5634   Anisotropy =     8.5257

     31  H    Isotropic =    30.7835   Anisotropy =    10.8789

 The electronic state is 1-A.
 Alpha  occ. eigenvalues --  -19.24489 -10.29416 -10.25274 -10.24646 -10.24562
 Alpha  occ. eigenvalues --  -10.24141 -10.24136 -10.24049 -10.23540 -10.22778
 Alpha  occ. eigenvalues --  -10.22050  -1.05033  -0.86154  -0.81975  -0.76638
 Alpha  occ. eigenvalues --   -0.75354  -0.69609  -0.69396  -0.63494  -0.61430
 Alpha  occ. eigenvalues --   -0.57715  -0.56031  -0.52168  -0.47985  -0.47798
 Alpha  occ. eigenvalues --   -0.46338  -0.45309  -0.43142  -0.42030  -0.41038
 Alpha  occ. eigenvalues --   -0.40045  -0.39758  -0.39154  -0.37935  -0.37166
 Alpha  occ. eigenvalues --   -0.36621  -0.35207  -0.34735  -0.33234  -0.32223
 Alpha  occ. eigenvalues --   -0.32168  -0.31230  -0.30043  -0.28091
 Alpha virt. eigenvalues --    0.00736   0.01688   0.01928   0.02522   0.03658
 Alpha virt. eigenvalues --    0.04472   0.04652   0.05017   0.05937   0.06428
 Alpha virt. eigenvalues --    0.06997   0.07433   0.08113   0.08839   0.09236

 Mulliken atomic charges:
              1
     1  C    0.282286
     2  C    0.028322
     3  C   -0.346413
     4  C   -0.153498
     5  C   -0.416665
     6  C   -0.546068
     7  C   -0.733567
     8  O   -0.518803
     9  C    0.347785
    10  C   -0.679711
    11  C   -0.690380
    12  H    0.158458
    13  H    0.147982
    14  H    0.159946
    15  H    0.162810
    16  H    0.157771
    17  H    0.163363
    18  H    0.157412
    19  H    0.179161
    20  H    0.149013
    21  H    0.164175
    22  H    0.162848
    23  H    0.164017
    24  H    0.364856
    25  H    0.140433
    26  H    0.192130
    27  H    0.154162
    28  H    0.151934
    29  H    0.176402
    30  H    0.157893
    31  H    0.161946
 Sum of Mulliken atomic charges =   0.00000

 Dipole moment (field-independent basis, Debye):
    X=              1.6824    Y=             -0.0910    Z=              1.0553  Tot=              1.9881
 Quadrupole moment (field-independent basis, Debye-Ang):
   XX=            -74.8690   YY=            -69.0974   ZZ=            -72.0460
   XY=              2.6161   XZ=             -0.2928   YZ=              3.0693

 Normal termination of Gaussian 09 at Thu Sep 19 07:52:44 2024.
