 Gaussian 09, Revision C.01,
 Gaussian 09:  EM64L-G09RevC.01 23-Sep-2011

 --------------------------------------------------
 # mPW1PW91/6-31+G** nmr scrf=(pcm,solvent=benzene)
 --------------------------------------------------

 99/9=1/99;
 -------
 comment
 -------
 Charge =  0 Multiplicity = 1

                         Standard orientation:
 ---------------------------------------------------------------------
 Center     Atomic      Atomic             Coordinates (Angstroms)
 Number     Number       Type             X           Y           Z
 ---------------------------------------------------------------------
      1          6           0       -2.327871   -0.224639   -0.281090
      2          6           0       -0.095193    1.029387   -0.423638
      3          6           0       -0.097400   -1.451463   -0.138926
      4          6           0        0.678489   -0.155073    0.191156
      5          6           0       -1.562662   -1.413317    0.317997
      6          6           0       -1.561590    1.068925    0.030220
      7          6           0       -3.778524   -0.161206    0.209460
      8          8           0        0.553862    2.255748   -0.075293
      9          6           0        2.175389   -0.189290   -0.259174
     10          6           0        2.807273   -1.592943   -0.223076
     11          6           0        3.049058    0.764958    0.575523
     12          1           0       -2.343771   -0.354410   -1.375388
     13          1           0       -0.069154    0.902341   -1.521982
     14          1           0        0.399277   -2.307433    0.328412
     15          1           0       -0.062377   -1.630468   -1.224679
     16          1           0        0.657408   -0.025847    1.285344
     17          1           0       -1.600131   -1.343780    1.416158
     18          1           0       -2.060167   -2.355085    0.049907
     19          1           0       -1.578756    1.260759    1.112918
     20          1           0       -2.060931    1.926336   -0.447775
     21          1           0       -3.819230   -0.031388    1.298653
     22          1           0       -4.318628    0.677825   -0.245759
     23          1           0       -4.321239   -1.081893   -0.036329
     24          1           0        0.035548    2.976276   -0.466740
     25          1           0        2.205799    0.152577   -1.305474
     26          1           0        2.778060   -2.020010    0.788139
     27          1           0        2.317922   -2.299502   -0.900883
     28          1           0        3.861384   -1.531797   -0.518360
     29          1           0        3.084196    0.433148    1.622289
     30          1           0        2.662462    1.784078    0.554224
     31          1           0        4.079621    0.770258    0.198955
 ---------------------------------------------------------------------

 SCF Done:  E(RmPW1PW91) =  -468.282122967     A.U. after   12 cycles

      1  C    Isotropic =   162.1979   Anisotropy =    11.4683

      2  C    Isotropic =   116.8279   Anisotropy =    37.3019

      3  C    Isotropic =   164.9259   Anisotropy =    20.0792

      4  C    Isotropic =   146.7138   Anisotropy =    13.7620

      5  C    Isotropic =   159.9630   Anisotropy =    20.9443

      6  C    Isotropic =   148.6323   Anisotropy =    38.7722

      7  C    Isotropic =   173.4123   Anisotropy =    37.4846

      8  O    Isotropic =   269.1365   Anisotropy =    55.0362

      9  C    Isotropic =   159.9484   Anisotropy =    20.3157

     10  C    Isotropic =   174.2954   Anisotropy =    26.5499

     11  C    Isotropic =   170.2095   Anisotropy =    37.4101

     12  H    Isotropic =    30.0972   Anisotropy =     6.5947

     13  H    Isotropic =    28.1268   Anisotropy =     1.8314

     14  H    Isotropic =    29.8282   Anisotropy =     8.3361

     15  H    Isotropic =    30.6205   Anisotropy =     6.8263

     16  H    Isotropic =    30.5729   Anisotropy =     3.2988

     17  H    Isotropic =    30.6740   Anisotropy =     6.7593

     18  H    Isotropic =    30.0165   Anisotropy =     8.9368

     19  H    Isotropic =    30.4521   Anisotropy =     4.5157

     20  H    Isotropic =    30.1499   Anisotropy =     6.4211

     21  H    Isotropic =    30.9316   Anisotropy =     8.3273

     22  H    Isotropic =    30.6308   Anisotropy =    10.5419

     23  H    Isotropic =    30.5452   Anisotropy =    10.5849

     24  H    Isotropic =    30.8841   Anisotropy =    17.7306

     25  H    Isotropic =    29.9668   Anisotropy =     5.5774

     26  H    Isotropic =    30.9666   Anisotropy =     7.9869

     27  H    Isotropic =    30.4593   Anisotropy =     8.4218

     28  H    Isotropic =    30.8672   Anisotropy =    10.2738

     29  H    Isotropic =    30.9644   Anisotropy =     7.7589

     30  H    Isotropic =    29.1125   Anisotropy =     7.3008

     31  H    Isotropic =    30.7457   Anisotropy =    10.7921

 The electronic state is 1-A.
 Alpha  occ. eigenvalues --  -19.24538 -10.29581 -10.25222 -10.24757 -10.24724
 Alpha  occ. eigenvalues --  -10.24147 -10.24096 -10.24027 -10.23539 -10.22902
 Alpha  occ. eigenvalues --  -10.21868  -1.05162  -0.86135  -0.82001  -0.76640
 Alpha  occ. eigenvalues --   -0.75399  -0.69776  -0.69213  -0.63155  -0.61250
 Alpha  occ. eigenvalues --   -0.57533  -0.56915  -0.52276  -0.48977  -0.47038
 Alpha  occ. eigenvalues --   -0.45623  -0.45159  -0.43793  -0.42125  -0.40742
 Alpha  occ. eigenvalues --   -0.40178  -0.39909  -0.38850  -0.38366  -0.37395
 Alpha  occ. eigenvalues --   -0.35616  -0.35308  -0.35031  -0.33133  -0.32638
 Alpha  occ. eigenvalues --   -0.31898  -0.31323  -0.30060  -0.28086
 Alpha virt. eigenvalues --    0.00851   0.01619   0.02028   0.02593   0.03649
 Alpha virt. eigenvalues --    0.04420   0.04942   0.05054   0.06085   0.06645
 Alpha virt. eigenvalues --    0.06867   0.07321   0.07766   0.08913   0.09463

 Mulliken atomic charges:
              1
     1  C    0.287283
     2  C   -0.064106
     3  C   -0.207849
     4  C   -0.187880
     5  C   -0.548486
     6  C   -0.488750
     7  C   -0.755520
     8  O   -0.514327
     9  C    0.370890
    10  C   -0.645765
    11  C   -0.699999
    12  H    0.158274
    13  H    0.145722
    14  H    0.166522
    15  H    0.165020
    16  H    0.159729
    17  H    0.164005
    18  H    0.157668
    19  H    0.179956
    20  H    0.147839
    21  H    0.164112
    22  H    0.163126
    23  H    0.164368
    24  H    0.369388
    25  H    0.149850
    26  H    0.166862
    27  H    0.165080
    28  H    0.162549
    29  H    0.155963
    30  H    0.196785
    31  H    0.151691
 Sum of Mulliken atomic charges =   0.00000

 Dipole moment (field-independent basis, Debye):
    X=             -1.7868    Y=             -0.2537    Z=             -1.0363  Tot=              2.0811
 Quadrupole moment (field-independent basis, Debye-Ang):
   XX=            -74.2477   YY=            -70.3117   ZZ=            -71.4105
   XY=             -3.3948   XZ=              0.1271   YZ=             -2.8545

 Normal termination of Gaussian 09 at Thu Sep 19 07:59:29 2024.
