 Gaussian 09, Revision C.01,
 Gaussian 09:  AM64L-G09RevC.01 23-Sep-2011

 --------------------------------------------------
 # mPW1PW91/6-31+G** nmr scrf=(pcm,solvent=benzene)
 --------------------------------------------------

 99/9=1/99;
 -------
 comment
 -------
 Charge =  0 Multiplicity = 1

                         Standard orientation:
 ---------------------------------------------------------------------
 Center     Atomic      Atomic             Coordinates (Angstroms)
 Number     Number       Type             X           Y           Z
 ---------------------------------------------------------------------
      1          6           0        1.887001   -0.595505    0.795940
      2          6           0        0.224206    1.252684    0.009380
      3          6           0        0.120429   -1.038314   -1.007448
      4          6           0       -0.722903    0.188495   -0.589697
      5          6           0        0.931282   -1.627564    0.157604
      6          6           0        1.109712    0.695596    1.140144
      7          6           0        3.134528   -0.337065   -0.066658
      8          8           0        0.998968    1.755582   -1.090551
      9          6           0       -1.932468   -0.130125    0.338299
     10          6           0       -2.747371   -1.338301   -0.155426
     11          6           0       -2.875317    1.079656    0.481158
     12          1           0        2.243328   -1.017093    1.747150
     13          1           0       -0.367634    2.082185    0.423230
     14          1           0        0.803456   -0.717743   -1.801584
     15          1           0       -0.517391   -1.810478   -1.450390
     16          1           0       -1.137421    0.633489   -1.506048
     17          1           0        1.506202   -2.496694   -0.188759
     18          1           0        0.244403   -2.003455    0.929363
     19          1           0        1.808673    1.481394    1.466195
     20          1           0        0.461479    0.501561    2.006098
     21          1           0        2.878901    0.093780   -1.038059
     22          1           0        3.815693    0.360324    0.438179
     23          1           0        3.686790   -1.269555   -0.236377
     24          1           0        1.652504    2.373691   -0.727751
     25          1           0       -1.557207   -0.378116    1.341798
     26          1           0       -3.082341   -1.191475   -1.190750
     27          1           0       -2.178313   -2.272018   -0.117026
     28          1           0       -3.641518   -1.473766    0.464263
     29          1           0       -3.291063    1.364018   -0.494363
     30          1           0       -2.378320    1.960940    0.898430
     31          1           0       -3.716558    0.837020    1.141034
 ---------------------------------------------------------------------

 SCF Done:  E(RmPW1PW91) =  -468.277034015     A.U. after   12 cycles

      1  C    Isotropic =   165.1649   Anisotropy =     1.9687

      2  C    Isotropic =   124.9720   Anisotropy =    56.7297

      3  C    Isotropic =   176.8392   Anisotropy =    18.7978

      4  C    Isotropic =   148.4728   Anisotropy =    25.3424

      5  C    Isotropic =   167.6705   Anisotropy =    18.2513

      6  C    Isotropic =   159.1075   Anisotropy =    14.3924

      7  C    Isotropic =   173.4585   Anisotropy =    34.2082

      8  O    Isotropic =   265.9442   Anisotropy =    76.0859

      9  C    Isotropic =   167.0408   Anisotropy =    13.2095

     10  C    Isotropic =   174.5059   Anisotropy =    29.0210

     11  C    Isotropic =   173.6494   Anisotropy =    34.8045

     12  H    Isotropic =    29.8059   Anisotropy =     9.6613

     13  H    Isotropic =    27.4128   Anisotropy =     6.9306

     14  H    Isotropic =    29.3497   Anisotropy =     7.1619

     15  H    Isotropic =    30.1818   Anisotropy =     8.3359

     16  H    Isotropic =    30.2519   Anisotropy =     5.7891

     17  H    Isotropic =    30.3726   Anisotropy =    10.0411

     18  H    Isotropic =    29.8779   Anisotropy =     6.7749

     19  H    Isotropic =    30.3670   Anisotropy =     8.1566

     20  H    Isotropic =    29.6846   Anisotropy =     6.6596

     21  H    Isotropic =    29.3514   Anisotropy =     4.6471

     22  H    Isotropic =    30.6855   Anisotropy =     9.8132

     23  H    Isotropic =    30.7668   Anisotropy =    11.0988

     24  H    Isotropic =    30.9873   Anisotropy =    16.4931

     25  H    Isotropic =    29.8675   Anisotropy =     5.2723

     26  H    Isotropic =    30.9769   Anisotropy =     8.8242

     27  H    Isotropic =    30.2663   Anisotropy =     8.2333

     28  H    Isotropic =    30.7702   Anisotropy =    10.3835

     29  H    Isotropic =    30.9960   Anisotropy =     8.7758

     30  H    Isotropic =    30.3308   Anisotropy =     8.7889

     31  H    Isotropic =    30.7114   Anisotropy =    10.6346

 The electronic state is 1-A.
 Alpha  occ. eigenvalues --  -19.24311 -10.29402 -10.25269 -10.24908 -10.24524
 Alpha  occ. eigenvalues --  -10.24308 -10.23655 -10.23295 -10.23254 -10.23248
 Alpha  occ. eigenvalues --  -10.22733  -1.04827  -0.85739  -0.81854  -0.76216
 Alpha  occ. eigenvalues --   -0.75459  -0.70112  -0.69527  -0.62944  -0.62233
 Alpha  occ. eigenvalues --   -0.58830  -0.53316  -0.50750  -0.49794  -0.47824
 Alpha  occ. eigenvalues --   -0.46400  -0.44177  -0.43731  -0.43055  -0.41353
 Alpha  occ. eigenvalues --   -0.39992  -0.39578  -0.39242  -0.38222  -0.36895
 Alpha  occ. eigenvalues --   -0.36046  -0.35842  -0.34263  -0.33866  -0.33030
 Alpha  occ. eigenvalues --   -0.31824  -0.30769  -0.29646  -0.27485
 Alpha virt. eigenvalues --    0.00357   0.01802   0.02186   0.02417   0.03861
 Alpha virt. eigenvalues --    0.04211   0.04546   0.05105   0.05409   0.06691
 Alpha virt. eigenvalues --    0.07196   0.07430   0.08179   0.08482   0.09556

 Mulliken atomic charges:
              1
     1  C    0.245783
     2  C    0.111280
     3  C   -0.410575
     4  C   -0.123756
     5  C   -0.366288
     6  C   -0.477161
     7  C   -0.736442
     8  O   -0.525943
     9  C    0.212992
    10  C   -0.641574
    11  C   -0.671765
    12  H    0.150063
    13  H    0.122110
    14  H    0.179929
    15  H    0.152645
    16  H    0.161280
    17  H    0.154257
    18  H    0.157004
    19  H    0.148957
    20  H    0.164813
    21  H    0.187848
    22  H    0.155957
    23  H    0.158344
    24  H    0.355935
    25  H    0.152154
    26  H    0.170104
    27  H    0.163927
    28  H    0.161729
    29  H    0.169199
    30  H    0.153181
    31  H    0.164012
 Sum of Mulliken atomic charges =   0.00000

 Dipole moment (field-independent basis, Debye):
    X=              0.1643    Y=              0.2089    Z=              1.7936  Tot=              1.8132
 Quadrupole moment (field-independent basis, Debye-Ang):
   XX=            -70.6819   YY=            -70.0104   ZZ=            -74.4503
   XY=              2.3239   XZ=              1.2728   YZ=              2.6752

 Normal termination of Gaussian 09 at Thu Sep 19 08:14:55 2024.
