 Gaussian 09, Revision C.01,
 Gaussian 09:  AM64L-G09RevC.01 23-Sep-2011

 --------------------------------------------------
 # mPW1PW91/6-31+G** nmr scrf=(pcm,solvent=benzene)
 --------------------------------------------------

 99/9=1/99;
 -------
 comment
 -------
 Charge =  0 Multiplicity = 1

                         Standard orientation:
 ---------------------------------------------------------------------
 Center     Atomic      Atomic             Coordinates (Angstroms)
 Number     Number       Type             X           Y           Z
 ---------------------------------------------------------------------
      1          6           0        2.298042   -0.078754    0.323229
      2          6           0       -0.062536    0.896347    0.315210
      3          6           0        0.263695   -1.576353   -0.009561
      4          6           0       -0.619749   -0.364818   -0.382310
      5          6           0        1.745342   -1.350790   -0.340219
      6          6           0        1.409859    1.123499   -0.034659
      7          6           0        3.764196    0.171542   -0.047960
      8          8           0       -0.748846    2.099049   -0.052375
      9          6           0       -2.128174   -0.665848   -0.123003
     10          6           0       -3.062785    0.103827   -1.073286
     11          6           0       -2.559299   -0.488615    1.343666
     12          1           0        2.245123   -0.222730    1.414811
     13          1           0       -0.135130    0.752848    1.406380
     14          1           0       -0.103923   -2.467277   -0.535169
     15          1           0        0.161463   -1.790465    1.065202
     16          1           0       -0.506057   -0.195457   -1.464171
     17          1           0        1.863773   -1.263649   -1.431177
     18          1           0        2.336908   -2.223449   -0.032238
     19          1           0        1.481158    1.330274   -1.112683
     20          1           0        1.754216    2.027973    0.481755
     21          1           0        3.874593    0.323811   -1.129340
     22          1           0        4.156105    1.063699    0.454876
     23          1           0        4.396584   -0.678700    0.234864
     24          1           0       -1.608761    2.098748    0.392586
     25          1           0       -2.263513   -1.732099   -0.358522
     26          1           0       -2.970351    1.188102   -0.956662
     27          1           0       -2.829052   -0.124840   -2.119620
     28          1           0       -4.110466   -0.169034   -0.896656
     29          1           0       -2.552117    0.564311    1.656331
     30          1           0       -1.909432   -1.038870    2.033433
     31          1           0       -3.581891   -0.855809    1.488365
 ---------------------------------------------------------------------

 SCF Done:  E(RmPW1PW91) =  -468.282637475     A.U. after   12 cycles

      1  C    Isotropic =   161.9386   Anisotropy =     8.9301

      2  C    Isotropic =   121.8644   Anisotropy =    53.9920

      3  C    Isotropic =   162.4269   Anisotropy =    24.5410

      4  C    Isotropic =   145.5812   Anisotropy =    11.0362

      5  C    Isotropic =   160.1020   Anisotropy =    20.9025

      6  C    Isotropic =   152.6185   Anisotropy =    33.5162

      7  C    Isotropic =   173.1057   Anisotropy =    38.0196

      8  O    Isotropic =   276.4849   Anisotropy =    51.8785

      9  C    Isotropic =   159.4279   Anisotropy =    23.8679

     10  C    Isotropic =   169.7739   Anisotropy =    35.7124

     11  C    Isotropic =   177.8637   Anisotropy =    23.2550

     12  H    Isotropic =    30.1487   Anisotropy =     6.5590

     13  H    Isotropic =    27.9712   Anisotropy =     1.9067

     14  H    Isotropic =    30.2630   Anisotropy =     8.7077

     15  H    Isotropic =    30.3086   Anisotropy =     5.9257

     16  H    Isotropic =    30.3255   Anisotropy =     3.7310

     17  H    Isotropic =    30.5990   Anisotropy =     6.9143

     18  H    Isotropic =    30.0506   Anisotropy =     9.1480

     19  H    Isotropic =    30.5261   Anisotropy =     4.9320

     20  H    Isotropic =    29.7383   Anisotropy =     7.1717

     21  H    Isotropic =    30.9287   Anisotropy =     8.4057

     22  H    Isotropic =    30.5680   Anisotropy =    10.5276

     23  H    Isotropic =    30.5612   Anisotropy =    10.6405

     24  H    Isotropic =    30.3969   Anisotropy =    15.6866

     25  H    Isotropic =    30.0914   Anisotropy =     6.5890

     26  H    Isotropic =    30.4525   Anisotropy =     5.8955

     27  H    Isotropic =    30.3424   Anisotropy =     9.4733

     28  H    Isotropic =    30.6399   Anisotropy =    11.0259

     29  H    Isotropic =    31.1345   Anisotropy =     7.0954

     30  H    Isotropic =    30.3872   Anisotropy =     8.5503

     31  H    Isotropic =    30.6163   Anisotropy =    10.8360

 The electronic state is 1-A.
 Alpha  occ. eigenvalues --  -19.24487 -10.29434 -10.25502 -10.25042 -10.24716
 Alpha  occ. eigenvalues --  -10.24282 -10.24015 -10.24002 -10.23633 -10.23343
 Alpha  occ. eigenvalues --  -10.23319  -1.04990  -0.86181  -0.82416  -0.76913
 Alpha  occ. eigenvalues --   -0.75544  -0.70695  -0.69455  -0.62591  -0.61986
 Alpha  occ. eigenvalues --   -0.58372  -0.56653  -0.52348  -0.48350  -0.47129
 Alpha  occ. eigenvalues --   -0.46374  -0.45533  -0.42881  -0.42750  -0.42531
 Alpha  occ. eigenvalues --   -0.40772  -0.39966  -0.39055  -0.38388  -0.37208
 Alpha  occ. eigenvalues --   -0.36372  -0.35639  -0.34524  -0.33828  -0.33112
 Alpha  occ. eigenvalues --   -0.32120  -0.31829  -0.30658  -0.27618
 Alpha virt. eigenvalues --    0.00661   0.01744   0.01956   0.02586   0.03927
 Alpha virt. eigenvalues --    0.04306   0.04442   0.05066   0.05913   0.06202
 Alpha virt. eigenvalues --    0.06917   0.07257   0.07652   0.08851   0.09129

 Mulliken atomic charges:
              1
     1  C    0.273807
     2  C   -0.257851
     3  C   -0.344446
     4  C   -0.036939
     5  C   -0.408925
     6  C   -0.405217
     7  C   -0.711210
     8  O   -0.475088
     9  C    0.151990
    10  C   -0.596377
    11  C   -0.592143
    12  H    0.157048
    13  H    0.147525
    14  H    0.159210
    15  H    0.162466
    16  H    0.159133
    17  H    0.163485
    18  H    0.157062
    19  H    0.173237
    20  H    0.168038
    21  H    0.163554
    22  H    0.164524
    23  H    0.162363
    24  H    0.355111
    25  H    0.149476
    26  H    0.152619
    27  H    0.165740
    28  H    0.159830
    29  H    0.143107
    30  H    0.168603
    31  H    0.170270
 Sum of Mulliken atomic charges =   0.00000

 Dipole moment (field-independent basis, Debye):
    X=             -0.5401    Y=             -1.7561    Z=              1.0062  Tot=              2.0947
 Quadrupole moment (field-independent basis, Debye-Ang):
   XX=            -69.0170   YY=            -76.6144   ZZ=            -71.4278
   XY=             -0.4762   XZ=             -1.0829   YZ=              2.2695

 Normal termination of Gaussian 09 at Thu Sep 19 08:00:30 2024.
