 Gaussian 09, Revision C.01,
 Gaussian 09:  AM64L-G09RevC.01 23-Sep-2011

 --------------------------------------------------
 # mPW1PW91/6-31+G** nmr scrf=(pcm,solvent=benzene)
 --------------------------------------------------

 99/9=1/99;
 -------
 comment
 -------
 Charge =  0 Multiplicity = 1

                         Standard orientation:
 ---------------------------------------------------------------------
 Center     Atomic      Atomic             Coordinates (Angstroms)
 Number     Number       Type             X           Y           Z
 ---------------------------------------------------------------------
      1          6           0       -2.000553   -0.290184    0.205678
      2          6           0       -0.163344    1.315586   -0.588959
      3          6           0        0.236646   -0.186299    1.440622
      4          6           0        0.906552    0.631002    0.305236
      5          6           0       -0.942156   -1.073650    1.000547
      6          6           0       -1.335868    0.407017   -0.994823
      7          6           0       -3.166812   -1.182313   -0.232821
      8          8           0       -0.656133    2.506046    0.046852
      9          6           0        2.039943   -0.097327   -0.481450
     10          6           0        1.705209   -1.470410   -1.088224
     11          6           0        3.307291   -0.217168    0.384374
     12          1           0       -2.413912    0.488711    0.868714
     13          1           0        0.325729    1.693155   -1.494502
     14          1           0       -0.137408    0.520894    2.196597
     15          1           0        0.986267   -0.793130    1.963067
     16          1           0        1.414789    1.478525    0.784039
     17          1           0       -1.403025   -1.527435    1.888644
     18          1           0       -0.585974   -1.906242    0.380894
     19          1           0       -2.068677    1.019909   -1.534432
     20          1           0       -0.985001   -0.359676   -1.698519
     21          1           0       -3.926243   -0.606945   -0.775487
     22          1           0       -2.817880   -1.983047   -0.897690
     23          1           0       -3.653650   -1.654089    0.629258
     24          1           0       -1.112695    2.238976    0.859594
     25          1           0        2.293142    0.570886   -1.319156
     26          1           0        1.507918   -2.218577   -0.311603
     27          1           0        0.838114   -1.439727   -1.754824
     28          1           0        2.556210   -1.834017   -1.676836
     29          1           0        3.146543   -0.874932    1.247654
     30          1           0        3.626790    0.760243    0.764171
     31          1           0        4.136581   -0.639367   -0.195474
 ---------------------------------------------------------------------

 SCF Done:  E(RmPW1PW91) =  -468.276542552     A.U. after   12 cycles

      1  C    Isotropic =   167.2159   Anisotropy =    16.2883

      2  C    Isotropic =   119.7777   Anisotropy =    46.1992

      3  C    Isotropic =   173.9371   Anisotropy =    23.4987

      4  C    Isotropic =   149.1547   Anisotropy =    29.7352

      5  C    Isotropic =   162.4133   Anisotropy =    17.3188

      6  C    Isotropic =   155.1976   Anisotropy =    19.9100

      7  C    Isotropic =   172.7791   Anisotropy =    38.4429

      8  O    Isotropic =   268.7284   Anisotropy =    45.6620

      9  C    Isotropic =   159.5492   Anisotropy =    20.3883

     10  C    Isotropic =   174.7397   Anisotropy =    21.0636

     11  C    Isotropic =   171.4064   Anisotropy =    39.4468

     12  H    Isotropic =    30.1431   Anisotropy =     6.3578

     13  H    Isotropic =    27.9498   Anisotropy =     4.6255

     14  H    Isotropic =    30.1254   Anisotropy =     9.0080

     15  H    Isotropic =    29.8351   Anisotropy =     8.3686

     16  H    Isotropic =    29.9863   Anisotropy =     5.9801

     17  H    Isotropic =    30.2392   Anisotropy =     9.1434

     18  H    Isotropic =    30.4679   Anisotropy =     5.2308

     19  H    Isotropic =    29.7965   Anisotropy =     8.2525

     20  H    Isotropic =    30.1900   Anisotropy =     4.9955

     21  H    Isotropic =    30.6070   Anisotropy =    10.8822

     22  H    Isotropic =    30.9641   Anisotropy =     8.1604

     23  H    Isotropic =    30.5292   Anisotropy =    10.6623

     24  H    Isotropic =    29.8488   Anisotropy =    12.0054

     25  H    Isotropic =    29.7174   Anisotropy =     7.1171

     26  H    Isotropic =    30.7855   Anisotropy =     5.8764

     27  H    Isotropic =    30.3805   Anisotropy =     7.3759

     28  H    Isotropic =    30.7118   Anisotropy =    10.7210

     29  H    Isotropic =    30.4764   Anisotropy =     6.6991

     30  H    Isotropic =    30.7080   Anisotropy =    10.2725

     31  H    Isotropic =    30.6186   Anisotropy =    10.5632

 The electronic state is 1-A.
 Alpha  occ. eigenvalues --  -19.24388 -10.29462 -10.25514 -10.25417 -10.24845
 Alpha  occ. eigenvalues --  -10.24539 -10.24137 -10.24022 -10.23604 -10.23489
 Alpha  occ. eigenvalues --  -10.23397  -1.04882  -0.85940  -0.82329  -0.76853
 Alpha  occ. eigenvalues --   -0.75659  -0.70718  -0.69678  -0.63818  -0.62607
 Alpha  occ. eigenvalues --   -0.58345  -0.55304  -0.51253  -0.48633  -0.47956
 Alpha  occ. eigenvalues --   -0.46660  -0.44717  -0.43852  -0.42531  -0.41813
 Alpha  occ. eigenvalues --   -0.41554  -0.39837  -0.39456  -0.38144  -0.37550
 Alpha  occ. eigenvalues --   -0.37340  -0.35778  -0.34799  -0.33946  -0.33151
 Alpha  occ. eigenvalues --   -0.31969  -0.31368  -0.30239  -0.27823
 Alpha virt. eigenvalues --    0.00628   0.01614   0.02088   0.02422   0.03666
 Alpha virt. eigenvalues --    0.04076   0.04527   0.04977   0.05713   0.06528
 Alpha virt. eigenvalues --    0.07004   0.07535   0.08184   0.08621   0.08801

 Mulliken atomic charges:
              1
     1  C    0.295640
     2  C   -0.076130
     3  C   -0.393002
     4  C   -0.165357
     5  C   -0.330958
     6  C   -0.342664
     7  C   -0.801607
     8  O   -0.475965
     9  C    0.159386
    10  C   -0.598831
    11  C   -0.648920
    12  H    0.141150
    13  H    0.141603
    14  H    0.159073
    15  H    0.160202
    16  H    0.169442
    17  H    0.157634
    18  H    0.158459
    19  H    0.174152
    20  H    0.153304
    21  H    0.165862
    22  H    0.162483
    23  H    0.163682
    24  H    0.351697
    25  H    0.148722
    26  H    0.164274
    27  H    0.154291
    28  H    0.164764
    29  H    0.160250
    30  H    0.163247
    31  H    0.164118
 Sum of Mulliken atomic charges =   0.00000

 Dipole moment (field-independent basis, Debye):
    X=             -0.0044    Y=             -1.9974    Z=              0.5732  Tot=              2.0780
 Quadrupole moment (field-independent basis, Debye-Ang):
   XX=            -70.5388   YY=            -80.6250   ZZ=            -69.6370
   XY=              0.4784   XZ=             -2.1277   YZ=              1.5522

 Normal termination of Gaussian 09 at Thu Sep 19 09:14:41 2024.
