 Gaussian 09, Revision C.01,
 Gaussian 09:  AM64L-G09RevC.01 23-Sep-2011

 --------------------------------------------------
 # mPW1PW91/6-31+G** nmr scrf=(pcm,solvent=benzene)
 --------------------------------------------------

 99/9=1/99;
 -------
 comment
 -------
 Charge =  0 Multiplicity = 1

                         Standard orientation:
 ---------------------------------------------------------------------
 Center     Atomic      Atomic             Coordinates (Angstroms)
 Number     Number       Type             X           Y           Z
 ---------------------------------------------------------------------
      1          6           0        2.424033    0.097929   -0.289718
      2          6           0        0.029874    0.935470    0.150806
      3          6           0        0.425016   -1.508841   -0.287843
      4          6           0       -0.567359   -0.340292   -0.483159
      5          6           0        1.816251   -1.199030   -0.861561
      6          6           0        1.410519    1.250588   -0.435045
      7          6           0        2.926310   -0.073649    1.154413
      8          8           0       -0.764644    2.107091   -0.075283
      9          6           0       -1.998273   -0.728123   -0.000422
     10          6           0       -3.109160    0.013523   -0.764994
     11          6           0       -2.200304   -0.609296    1.520737
     12          1           0        3.300908    0.354170   -0.901077
     13          1           0        0.134040    0.774008    1.235337
     14          1           0        0.022177   -2.408549   -0.771252
     15          1           0        0.505117   -1.751519    0.781621
     16          1           0       -0.634889   -0.144347   -1.564624
     17          1           0        1.728137   -1.096373   -1.952756
     18          1           0        2.494410   -2.044155   -0.682810
     19          1           0        1.270678    1.486132   -1.499245
     20          1           0        1.789670    2.163733    0.039895
     21          1           0        3.372910    0.856827    1.524806
     22          1           0        2.125790   -0.351509    1.849292
     23          1           0        3.692552   -0.856488    1.208127
     24          1           0       -1.534608    2.061894    0.509999
     25          1           0       -2.116156   -1.794176   -0.246324
     26          1           0       -3.056428    1.097301   -0.621780
     27          1           0       -3.030416   -0.169844   -1.842898
     28          1           0       -4.100509   -0.324708   -0.439035
     29          1           0       -2.203877    0.435524    1.859477
     30          1           0       -1.419305   -1.133598    2.082954
     31          1           0       -3.164496   -1.040714    1.813273
 ---------------------------------------------------------------------

 SCF Done:  E(RmPW1PW91) =  -468.279274745     A.U. after   12 cycles

      1  C    Isotropic =   163.8820   Anisotropy =     4.0685

      2  C    Isotropic =   125.9630   Anisotropy =    60.0027

      3  C    Isotropic =   166.6990   Anisotropy =    28.2665

      4  C    Isotropic =   144.2019   Anisotropy =     9.5993

      5  C    Isotropic =   162.4606   Anisotropy =    11.9398

      6  C    Isotropic =   154.5731   Anisotropy =    22.9925

      7  C    Isotropic =   176.4323   Anisotropy =    30.4847

      8  O    Isotropic =   277.7944   Anisotropy =    49.6051

      9  C    Isotropic =   158.9880   Anisotropy =    24.3539

     10  C    Isotropic =   169.6003   Anisotropy =    35.7386

     11  C    Isotropic =   177.4379   Anisotropy =    23.1868

     12  H    Isotropic =    29.6191   Anisotropy =    10.1158

     13  H    Isotropic =    27.6742   Anisotropy =     3.6474

     14  H    Isotropic =    30.4565   Anisotropy =     9.1041

     15  H    Isotropic =    30.0473   Anisotropy =     4.8543

     16  H    Isotropic =    30.2820   Anisotropy =     3.7777

     17  H    Isotropic =    29.9968   Anisotropy =     8.9487

     18  H    Isotropic =    30.1976   Anisotropy =     9.7885

     19  H    Isotropic =    30.0425   Anisotropy =     6.7056

     20  H    Isotropic =    29.8342   Anisotropy =     7.5605

     21  H    Isotropic =    30.6819   Anisotropy =    10.2773

     22  H    Isotropic =    30.2777   Anisotropy =     5.4429

     23  H    Isotropic =    30.7994   Anisotropy =    11.0072

     24  H    Isotropic =    30.4107   Anisotropy =    15.5646

     25  H    Isotropic =    30.1037   Anisotropy =     6.4813

     26  H    Isotropic =    30.4544   Anisotropy =     5.9296

     27  H    Isotropic =    30.3285   Anisotropy =     9.5177

     28  H    Isotropic =    30.6376   Anisotropy =    11.0281

     29  H    Isotropic =    31.1069   Anisotropy =     6.9627

     30  H    Isotropic =    30.3558   Anisotropy =     8.2918

     31  H    Isotropic =    30.6011   Anisotropy =    10.8085

 The electronic state is 1-A.
 Alpha  occ. eigenvalues --  -19.24441 -10.29357 -10.25448 -10.25082 -10.24658
 Alpha  occ. eigenvalues --  -10.24213 -10.24006 -10.23983 -10.23627 -10.23343
 Alpha  occ. eigenvalues --  -10.23298  -1.04926  -0.86095  -0.82300  -0.76583
 Alpha  occ. eigenvalues --   -0.75418  -0.70646  -0.69747  -0.63046  -0.62397
 Alpha  occ. eigenvalues --   -0.57923  -0.55295  -0.52577  -0.48869  -0.47346
 Alpha  occ. eigenvalues --   -0.45857  -0.45202  -0.43735  -0.42358  -0.42263
 Alpha  occ. eigenvalues --   -0.40393  -0.40276  -0.39244  -0.39088  -0.36696
 Alpha  occ. eigenvalues --   -0.36501  -0.35130  -0.34442  -0.33977  -0.33375
 Alpha  occ. eigenvalues --   -0.32025  -0.31689  -0.30209  -0.27571
 Alpha virt. eigenvalues --    0.00639   0.01302   0.02092   0.02473   0.03855
 Alpha virt. eigenvalues --    0.04294   0.04458   0.05062   0.05729   0.06347
 Alpha virt. eigenvalues --    0.06975   0.07435   0.07861   0.08489   0.09228

 Mulliken atomic charges:
              1
     1  C    0.216949
     2  C   -0.384679
     3  C   -0.283352
     4  C    0.128435
     5  C   -0.504035
     6  C   -0.343792
     7  C   -0.684121
     8  O   -0.462992
     9  C    0.078491
    10  C   -0.581655
    11  C   -0.575202
    12  H    0.155144
    13  H    0.148671
    14  H    0.159169
    15  H    0.162277
    16  H    0.157066
    17  H    0.163745
    18  H    0.156538
    19  H    0.173095
    20  H    0.168207
    21  H    0.165013
    22  H    0.160189
    23  H    0.164108
    24  H    0.354776
    25  H    0.149161
    26  H    0.152334
    27  H    0.165354
    28  H    0.159465
    29  H    0.143519
    30  H    0.167881
    31  H    0.170236
 Sum of Mulliken atomic charges =   0.00000

 Dipole moment (field-independent basis, Debye):
    X=             -0.1819    Y=             -1.7487    Z=              0.9078  Tot=              1.9786
 Quadrupole moment (field-independent basis, Debye-Ang):
   XX=            -68.8661   YY=            -76.8576   ZZ=            -71.4660
   XY=              0.2887   XZ=             -2.1025   YZ=              2.5514

 Normal termination of Gaussian 09 at Thu Sep 19 08:54:24 2024.
