 Gaussian 09, Revision C.01,
 Gaussian 09:  EM64L-G09RevC.01 23-Sep-2011

 --------------------------------------------------
 # mPW1PW91/6-31+G** nmr scrf=(pcm,solvent=benzene)
 --------------------------------------------------

 99/9=1/99;
 -------
 comment
 -------
 Charge =  0 Multiplicity = 1

                         Standard orientation:
 ---------------------------------------------------------------------
 Center     Atomic      Atomic             Coordinates (Angstroms)
 Number     Number       Type             X           Y           Z
 ---------------------------------------------------------------------
      1          6           0        2.374497   -0.314832   -0.272542
      2          6           0        0.256720    1.126815    0.049361
      3          6           0        0.042120   -1.373272   -0.129026
      4          6           0       -0.635734   -0.023848   -0.446700
      5          6           0        1.454944   -1.466923   -0.727541
      6          6           0        1.672732    1.032363   -0.540823
      7          6           0        2.835150   -0.465661    1.187498
      8          8           0       -0.365436    2.355719   -0.341210
      9          6           0       -2.104242    0.093111    0.049289
     10          6           0       -2.274338   -0.102322    1.564914
     11          6           0       -3.039738   -0.851231   -0.723111
     12          1           0        3.279975   -0.342315   -0.895313
     13          1           0        0.317672    1.083442    1.149380
     14          1           0       -0.568242   -2.197155   -0.517201
     15          1           0        0.091526   -1.518118    0.958244
     16          1           0       -0.671303    0.079827   -1.543346
     17          1           0        1.375154   -1.442230   -1.823837
     18          1           0        1.909784   -2.432864   -0.470454
     19          1           0        1.583368    1.191099   -1.624219
     20          1           0        2.285974    1.859564   -0.151273
     21          1           0        3.507033    0.353554    1.471337
     22          1           0        1.999245   -0.464298    1.895661
     23          1           0        3.380950   -1.406622    1.326408
     24          1           0        0.205711    3.079602   -0.040475
     25          1           0       -2.412119    1.119115   -0.183738
     26          1           0       -2.025649   -1.123956    1.877849
     27          1           0       -1.649260    0.588458    2.141812
     28          1           0       -3.315437    0.081543    1.856131
     29          1           0       -2.834894   -1.906033   -0.502015
     30          1           0       -2.942240   -0.711615   -1.806765
     31          1           0       -4.086437   -0.661949   -0.456418
 ---------------------------------------------------------------------

 SCF Done:  E(RmPW1PW91) =  -468.282469292     A.U. after   12 cycles

      1  C    Isotropic =   163.7049   Anisotropy =     4.8356

      2  C    Isotropic =   128.3068   Anisotropy =    56.9952

      3  C    Isotropic =   176.0948   Anisotropy =    12.4187

      4  C    Isotropic =   144.7125   Anisotropy =    11.8730

      5  C    Isotropic =   162.7228   Anisotropy =    12.0739

      6  C    Isotropic =   151.8971   Anisotropy =    25.9905

      7  C    Isotropic =   176.4838   Anisotropy =    30.2995

      8  O    Isotropic =   279.2899   Anisotropy =    66.7073

      9  C    Isotropic =   168.0072   Anisotropy =    10.5259

     10  C    Isotropic =   180.2054   Anisotropy =    25.0249

     11  C    Isotropic =   174.1146   Anisotropy =    36.3411

     12  H    Isotropic =    29.6272   Anisotropy =    10.0836

     13  H    Isotropic =    27.7225   Anisotropy =     2.1817

     14  H    Isotropic =    30.1790   Anisotropy =     9.0622

     15  H    Isotropic =    30.2499   Anisotropy =     5.5945

     16  H    Isotropic =    30.3276   Anisotropy =     3.4028

     17  H    Isotropic =    30.0351   Anisotropy =     8.8946

     18  H    Isotropic =    30.1152   Anisotropy =     9.7146

     19  H    Isotropic =    30.0696   Anisotropy =     6.5908

     20  H    Isotropic =    30.0877   Anisotropy =     7.0363

     21  H    Isotropic =    30.7188   Anisotropy =    10.2342

     22  H    Isotropic =    30.2656   Anisotropy =     5.3551

     23  H    Isotropic =    30.7848   Anisotropy =    10.9922

     24  H    Isotropic =    31.1443   Anisotropy =    18.6202

     25  H    Isotropic =    28.9685   Anisotropy =     6.8703

     26  H    Isotropic =    30.9849   Anisotropy =     7.3548

     27  H    Isotropic =    30.5024   Anisotropy =     8.7369

     28  H    Isotropic =    30.8291   Anisotropy =    11.0001

     29  H    Isotropic =    30.6232   Anisotropy =     7.1945

     30  H    Isotropic =    30.8080   Anisotropy =    10.2382

     31  H    Isotropic =    30.5879   Anisotropy =    10.7804

 The electronic state is 1-A.
 Alpha  occ. eigenvalues --  -19.24532 -10.29346 -10.25306 -10.24471 -10.24350
 Alpha  occ. eigenvalues --  -10.24141 -10.24040 -10.23945 -10.23513 -10.22883
 Alpha  occ. eigenvalues --  -10.22864  -1.05052  -0.86061  -0.81948  -0.76230
 Alpha  occ. eigenvalues --   -0.75313  -0.69917  -0.69806  -0.63772  -0.62254
 Alpha  occ. eigenvalues --   -0.56798  -0.54974  -0.52613  -0.49049  -0.46538
 Alpha  occ. eigenvalues --   -0.45597  -0.45252  -0.44833  -0.42799  -0.40595
 Alpha  occ. eigenvalues --   -0.40444  -0.39862  -0.38931  -0.38290  -0.37584
 Alpha  occ. eigenvalues --   -0.35547  -0.35272  -0.34741  -0.33527  -0.33100
 Alpha  occ. eigenvalues --   -0.31927  -0.31054  -0.30016  -0.27782
 Alpha virt. eigenvalues --    0.00622   0.01414   0.01735   0.02359   0.03724
 Alpha virt. eigenvalues --    0.04439   0.04675   0.04888   0.05588   0.06854
 Alpha virt. eigenvalues --    0.07247   0.07868   0.08140   0.08274   0.09257

 Mulliken atomic charges:
              1
     1  C    0.225450
     2  C   -0.004039
     3  C   -0.299870
     4  C   -0.134793
     5  C   -0.500393
     6  C   -0.458348
     7  C   -0.682982
     8  O   -0.512989
     9  C    0.162191
    10  C   -0.600221
    11  C   -0.622886
    12  H    0.155341
    13  H    0.141598
    14  H    0.159224
    15  H    0.164759
    16  H    0.157863
    17  H    0.163756
    18  H    0.156434
    19  H    0.178240
    20  H    0.149357
    21  H    0.162907
    22  H    0.163033
    23  H    0.165487
    24  H    0.360902
    25  H    0.182497
    26  H    0.161358
    27  H    0.158188
    28  H    0.164429
    29  H    0.158307
    30  H    0.161558
    31  H    0.163645
 Sum of Mulliken atomic charges =   0.00000

 Dipole moment (field-independent basis, Debye):
    X=              1.7292    Y=             -0.2246    Z=              0.6714  Tot=              1.8685
 Quadrupole moment (field-independent basis, Debye-Ang):
   XX=            -71.8480   YY=            -70.2995   ZZ=            -72.8924
   XY=              3.4833   XZ=             -0.4828   YZ=              2.5617

 Normal termination of Gaussian 09 at Thu Sep 19 08:17:13 2024.
