 Gaussian 09, Revision C.01,
 Gaussian 09:  AM64L-G09RevC.01 23-Sep-2011

 --------------------------------------------------
 # mPW1PW91/6-31+G** nmr scrf=(pcm,solvent=benzene)
 --------------------------------------------------

 99/9=1/99;
 -------
 comment
 -------
 Charge =  0 Multiplicity = 1

                         Standard orientation:
 ---------------------------------------------------------------------
 Center     Atomic      Atomic             Coordinates (Angstroms)
 Number     Number       Type             X           Y           Z
 ---------------------------------------------------------------------
      1          6           0       -2.048975   -0.055379    0.003127
      2          6           0        0.175575    1.142608   -0.457291
      3          6           0       -0.120438   -0.256142    1.653769
      4          6           0        0.899222    0.357607    0.660074
      5          6           0       -1.328935   -0.960432    1.016406
      6          6           0       -1.043876    0.421338   -1.057720
      7          6           0       -3.255967   -0.752030   -0.633627
      8          8           0       -0.230039    2.378982    0.154684
      9          6           0        2.023065   -0.614094    0.186891
     10          6           0        3.249039    0.159805   -0.332200
     11          6           0        1.631707   -1.699306   -0.830571
     12          1           0       -2.405460    0.833481    0.543229
     13          1           0        0.887992    1.362165   -1.268486
     14          1           0       -0.503179    0.560521    2.278551
     15          1           0        0.402304   -0.944149    2.331673
     16          1           0        1.433666    1.133048    1.224519
     17          1           0       -2.029008   -1.263095    1.807194
     18          1           0       -1.021845   -1.886894    0.511473
     19          1           0       -1.538445    1.101745   -1.769287
     20          1           0       -0.706121   -0.437920   -1.651364
     21          1           0       -3.776661   -0.090004   -1.336631
     22          1           0       -2.948155   -1.648389   -1.188074
     23          1           0       -3.979727   -1.065875    0.128338
     24          1           0       -0.747438    2.872568   -0.501313
     25          1           0        2.345840   -1.137241    1.099741
     26          1           0        3.029267    0.695310   -1.263968
     27          1           0        3.597677    0.897066    0.400345
     28          1           0        4.079820   -0.525040   -0.540366
     29          1           0        1.354102   -1.267189   -1.799543
     30          1           0        0.799067   -2.319936   -0.486423
     31          1           0        2.484119   -2.365874   -1.010230
 ---------------------------------------------------------------------

 SCF Done:  E(RmPW1PW91) =  -468.277088638     A.U. after   12 cycles

      1  C    Isotropic =   167.6830   Anisotropy =    13.3635

      2  C    Isotropic =   127.1910   Anisotropy =    52.2001

      3  C    Isotropic =   164.5806   Anisotropy =    17.8934

      4  C    Isotropic =   151.5446   Anisotropy =    23.5334

      5  C    Isotropic =   162.1633   Anisotropy =    18.7779

      6  C    Isotropic =   152.6875   Anisotropy =    22.3186

      7  C    Isotropic =   172.5822   Anisotropy =    38.5809

      8  O    Isotropic =   270.9634   Anisotropy =   108.1158

      9  C    Isotropic =   158.0753   Anisotropy =    22.1169

     10  C    Isotropic =   171.6290   Anisotropy =    39.1272

     11  C    Isotropic =   174.0105   Anisotropy =    21.6652

     12  H    Isotropic =    29.5873   Anisotropy =     6.3195

     13  H    Isotropic =    27.4747   Anisotropy =     5.6499

     14  H    Isotropic =    29.3023   Anisotropy =     8.3737

     15  H    Isotropic =    30.2166   Anisotropy =     8.5595

     16  H    Isotropic =    29.8696   Anisotropy =     5.6507

     17  H    Isotropic =    30.1164   Anisotropy =     9.3456

     18  H    Isotropic =    30.2764   Anisotropy =     5.3115

     19  H    Isotropic =    30.1929   Anisotropy =     7.4615

     20  H    Isotropic =    30.1660   Anisotropy =     4.6044

     21  H    Isotropic =    30.7029   Anisotropy =    10.6825

     22  H    Isotropic =    31.0017   Anisotropy =     8.0277

     23  H    Isotropic =    30.5888   Anisotropy =    10.7149

     24  H    Isotropic =    31.3444   Anisotropy =    17.7330

     25  H    Isotropic =    29.8044   Anisotropy =     6.9856

     26  H    Isotropic =    30.4805   Anisotropy =     6.7837

     27  H    Isotropic =    30.5996   Anisotropy =     9.9439

     28  H    Isotropic =    30.6306   Anisotropy =    10.5209

     29  H    Isotropic =    30.8337   Anisotropy =     5.7345

     30  H    Isotropic =    30.2462   Anisotropy =     7.3584

     31  H    Isotropic =    30.6419   Anisotropy =    10.5909

 The electronic state is 1-A.
 Alpha  occ. eigenvalues --  -19.24366 -10.29517 -10.25279 -10.24645 -10.24514
 Alpha  occ. eigenvalues --  -10.24142 -10.23629 -10.23575 -10.23367 -10.23297
 Alpha  occ. eigenvalues --  -10.23211  -1.04837  -0.85622  -0.82038  -0.76634
 Alpha  occ. eigenvalues --   -0.75239  -0.70561  -0.69468  -0.63403  -0.61805
 Alpha  occ. eigenvalues --   -0.58590  -0.54227  -0.51366  -0.49010  -0.46758
 Alpha  occ. eigenvalues --   -0.46367  -0.45376  -0.43123  -0.42700  -0.42349
 Alpha  occ. eigenvalues --   -0.40565  -0.39417  -0.39190  -0.37795  -0.37375
 Alpha  occ. eigenvalues --   -0.36957  -0.35761  -0.34417  -0.33183  -0.32677
 Alpha  occ. eigenvalues --   -0.31362  -0.31054  -0.30100  -0.27842
 Alpha virt. eigenvalues --    0.00671   0.01638   0.02157   0.02276   0.03599
 Alpha virt. eigenvalues --    0.04440   0.04527   0.05012   0.05427   0.06731
 Alpha virt. eigenvalues --    0.07348   0.07674   0.08499   0.08618   0.09036

 Mulliken atomic charges:
              1
     1  C    0.270218
     2  C    0.094077
     3  C   -0.503639
     4  C   -0.119643
     5  C   -0.316236
     6  C   -0.451804
     7  C   -0.703653
     8  O   -0.530549
     9  C    0.160516
    10  C   -0.656339
    11  C   -0.592572
    12  H    0.166967
    13  H    0.129843
    14  H    0.175027
    15  H    0.147761
    16  H    0.164301
    17  H    0.155805
    18  H    0.146100
    19  H    0.147896
    20  H    0.161724
    21  H    0.160422
    22  H    0.160058
    23  H    0.163062
    24  H    0.353309
    25  H    0.150202
    26  H    0.158388
    27  H    0.163645
    28  H    0.163670
    29  H    0.160015
    30  H    0.157639
    31  H    0.163789
 Sum of Mulliken atomic charges =   0.00000

 Dipole moment (field-independent basis, Debye):
    X=             -0.3437    Y=             -0.6083    Z=             -1.3538  Tot=              1.5235
 Quadrupole moment (field-independent basis, Debye-Ang):
   XX=            -71.1871   YY=            -73.2725   ZZ=            -71.3679
   XY=             -2.9061   XZ=              0.8993   YZ=             -4.4929

 Normal termination of Gaussian 09 at Thu Sep 19 08:56:04 2024.
