 Gaussian 09, Revision C.01,
 Gaussian 09:  AM64L-G09RevC.01 23-Sep-2011

 --------------------------------------------------
 # mPW1PW91/6-31+G** nmr scrf=(pcm,solvent=benzene)
 --------------------------------------------------

 99/9=1/99;
 -------
 comment
 -------
 Charge =  0 Multiplicity = 1

                         Standard orientation:
 ---------------------------------------------------------------------
 Center     Atomic      Atomic             Coordinates (Angstroms)
 Number     Number       Type             X           Y           Z
 ---------------------------------------------------------------------
      1          6           0        2.437979   -0.119458   -0.348495
      2          6           0        0.212634    1.046516    0.255273
      3          6           0        0.231240   -1.416913   -0.158052
      4          6           0       -0.619523   -0.131327   -0.291621
      5          6           0        1.597359   -1.307608   -0.853230
      6          6           0        1.582936    1.159447   -0.431557
      7          6           0        3.022002   -0.358574    1.054422
      8          8           0       -0.513449    2.266921    0.073205
      9          6           0       -2.026616   -0.232643    0.382448
     10          6           0       -2.618723   -1.653550    0.385576
     11          6           0       -3.043300    0.723323   -0.268378
     12          1           0        3.290077    0.006629   -1.031216
     13          1           0        0.357635    0.873155    1.335967
     14          1           0       -0.312335   -2.264299   -0.587419
     15          1           0        0.371103   -1.654510    0.906533
     16          1           0       -0.773742    0.051641   -1.367578
     17          1           0        1.432284   -1.188946   -1.933869
     18          1           0        2.154829   -2.245258   -0.726023
     19          1           0        1.398732    1.412403   -1.484540
     20          1           0        2.132674    2.008500    0.003599
     21          1           0        3.630694    0.495679    1.375106
     22          1           0        2.246641   -0.512188    1.813127
     23          1           0        3.665948   -1.246244    1.059746
     24          1           0        0.042430    2.985194    0.414026
     25          1           0       -1.904678    0.069821    1.434259
     26          1           0       -2.732802   -2.042352   -0.634851
     27          1           0       -2.012553   -2.367192    0.952351
     28          1           0       -3.616462   -1.637460    0.839876
     29          1           0       -3.234059    0.426994   -1.309007
     30          1           0       -2.682722    1.752225   -0.267925
     31          1           0       -4.002028    0.685558    0.263879
 ---------------------------------------------------------------------

 SCF Done:  E(RmPW1PW91) =  -468.278814358     A.U. after   12 cycles

      1  C    Isotropic =   163.8666   Anisotropy =     4.6319

      2  C    Isotropic =   121.1434   Anisotropy =    44.5005

      3  C    Isotropic =   169.6668   Anisotropy =    18.8235

      4  C    Isotropic =   145.4191   Anisotropy =    12.7203

      5  C    Isotropic =   162.2852   Anisotropy =    12.3496

      6  C    Isotropic =   151.1506   Anisotropy =    27.1185

      7  C    Isotropic =   176.4844   Anisotropy =    30.4533

      8  O    Isotropic =   273.6037   Anisotropy =    67.0398

      9  C    Isotropic =   160.0965   Anisotropy =    20.1548

     10  C    Isotropic =   174.5692   Anisotropy =    25.4539

     11  C    Isotropic =   170.2197   Anisotropy =    37.8662

     12  H    Isotropic =    29.6350   Anisotropy =    10.0208

     13  H    Isotropic =    27.8597   Anisotropy =     3.8421

     14  H    Isotropic =    30.0206   Anisotropy =     8.4169

     15  H    Isotropic =    30.3408   Anisotropy =     5.8328

     16  H    Isotropic =    30.5461   Anisotropy =     3.3819

     17  H    Isotropic =    30.0579   Anisotropy =     8.7504

     18  H    Isotropic =    30.1251   Anisotropy =     9.6052

     19  H    Isotropic =    29.9647   Anisotropy =     6.1486

     20  H    Isotropic =    30.2277   Anisotropy =     6.8222

     21  H    Isotropic =    30.7282   Anisotropy =    10.2435

     22  H    Isotropic =    30.2216   Anisotropy =     5.5214

     23  H    Isotropic =    30.7944   Anisotropy =    10.9739

     24  H    Isotropic =    31.1466   Anisotropy =    18.1106

     25  H    Isotropic =    29.9275   Anisotropy =     5.4478

     26  H    Isotropic =    30.9874   Anisotropy =     8.0730

     27  H    Isotropic =    30.4523   Anisotropy =     8.3635

     28  H    Isotropic =    30.8605   Anisotropy =    10.2514

     29  H    Isotropic =    30.9726   Anisotropy =     7.8508

     30  H    Isotropic =    29.1455   Anisotropy =     7.2942

     31  H    Isotropic =    30.7484   Anisotropy =    10.8056

 The electronic state is 1-A.
 Alpha  occ. eigenvalues --  -19.24498 -10.29506 -10.25281 -10.24726 -10.24694
 Alpha  occ. eigenvalues --  -10.24150 -10.24057 -10.24034 -10.23534 -10.22890
 Alpha  occ. eigenvalues --  -10.21866  -1.05102  -0.86049  -0.81882  -0.76317
 Alpha  occ. eigenvalues --   -0.75308  -0.70019  -0.69308  -0.63229  -0.62033
 Alpha  occ. eigenvalues --   -0.57130  -0.55586  -0.52639  -0.48873  -0.46570
 Alpha  occ. eigenvalues --   -0.45791  -0.45678  -0.43587  -0.42592  -0.40937
 Alpha  occ. eigenvalues --   -0.40575  -0.39300  -0.38969  -0.38285  -0.37369
 Alpha  occ. eigenvalues --   -0.35738  -0.35247  -0.34674  -0.33086  -0.32707
 Alpha  occ. eigenvalues --   -0.31763  -0.31278  -0.30060  -0.27868
 Alpha virt. eigenvalues --    0.00759   0.01477   0.01909   0.02448   0.03692
 Alpha virt. eigenvalues --    0.04282   0.04904   0.05082   0.05940   0.06668
 Alpha virt. eigenvalues --    0.07237   0.07546   0.07616   0.08927   0.09292

 Mulliken atomic charges:
              1
     1  C    0.199573
     2  C   -0.254383
     3  C   -0.267890
     4  C    0.013096
     5  C   -0.536890
     6  C   -0.377699
     7  C   -0.683295
     8  O   -0.503162
     9  C    0.297673
    10  C   -0.644984
    11  C   -0.690495
    12  H    0.155439
    13  H    0.147205
    14  H    0.167035
    15  H    0.165405
    16  H    0.158182
    17  H    0.163881
    18  H    0.157133
    19  H    0.179778
    20  H    0.148005
    21  H    0.162813
    22  H    0.162854
    23  H    0.165490
    24  H    0.367906
    25  H    0.149662
    26  H    0.166556
    27  H    0.165219
    28  H    0.162348
    29  H    0.155590
    30  H    0.196394
    31  H    0.151561
 Sum of Mulliken atomic charges =   0.00000

 Dipole moment (field-independent basis, Debye):
    X=              2.0105    Y=             -0.2400    Z=              0.5965  Tot=              2.1108
 Quadrupole moment (field-independent basis, Debye-Ang):
   XX=            -73.4715   YY=            -70.4380   ZZ=            -71.6351
   XY=              3.8258   XZ=             -0.3689   YZ=              2.4561

 Normal termination of Gaussian 09 at Thu Sep 19 08:51:13 2024.
