 Gaussian 09, Revision C.01,
 Gaussian 09:  AM64L-G09RevC.01 23-Sep-2011

 --------------------------------------------------
 # mPW1PW91/6-31+G** nmr scrf=(pcm,solvent=benzene)
 --------------------------------------------------

 99/9=1/99;
 -------
 comment
 -------
 Charge =  0 Multiplicity = 1

                         Standard orientation:
 ---------------------------------------------------------------------
 Center     Atomic      Atomic             Coordinates (Angstroms)
 Number     Number       Type             X           Y           Z
 ---------------------------------------------------------------------
      1          6           0       -2.269092    0.082550    0.166252
      2          6           0       -0.027338   -1.125054   -0.179938
      3          6           0       -0.057889    1.322889    0.476345
      4          6           0        0.723047    0.226839   -0.283586
      5          6           0       -1.527309    1.422551    0.038914
      6          6           0       -1.500246   -1.002794   -0.605322
      7          6           0       -3.726848    0.182196   -0.295188
      8          8           0        0.095331   -1.713832    1.121950
      9          6           0        2.206163    0.127840    0.165885
     10          6           0        2.971942    1.440059   -0.078220
     11          6           0        2.949738   -1.035382   -0.512349
     12          1           0       -2.278296   -0.198168    1.233102
     13          1           0        0.454419   -1.852688   -0.839217
     14          1           0        0.425303    2.295667    0.339457
     15          1           0       -0.011665    1.120186    1.559148
     16          1           0        0.716964    0.499056   -1.352615
     17          1           0       -1.570435    1.751652   -1.010997
     18          1           0       -2.040311    2.196157    0.626124
     19          1           0       -1.538566   -0.767353   -1.679873
     20          1           0       -1.980942   -1.980519   -0.475357
     21          1           0       -3.783655    0.457060   -1.356418
     22          1           0       -4.249893   -0.773508   -0.171236
     23          1           0       -4.274632    0.941998    0.275279
     24          1           0       -0.279818   -1.094412    1.766690
     25          1           0        2.206210   -0.071969    1.246616
     26          1           0        2.963274    1.708451   -1.143330
     27          1           0        2.556157    2.283685    0.481781
     28          1           0        4.020098    1.334404    0.225254
     29          1           0        2.898438   -0.957571   -1.606995
     30          1           0        2.541967   -2.006115   -0.217134
     31          1           0        4.009735   -1.025525   -0.232636
 ---------------------------------------------------------------------

 SCF Done:  E(RmPW1PW91) =  -468.283838195     A.U. after   12 cycles

      1  C    Isotropic =   167.2385   Anisotropy =    16.2559

      2  C    Isotropic =   126.9238   Anisotropy =    49.9015

      3  C    Isotropic =   168.9279   Anisotropy =    24.1872

      4  C    Isotropic =   147.2148   Anisotropy =    17.9927

      5  C    Isotropic =   160.1248   Anisotropy =    19.8915

      6  C    Isotropic =   152.9591   Anisotropy =    23.0497

      7  C    Isotropic =   173.0165   Anisotropy =    38.1508

      8  O    Isotropic =   300.1492   Anisotropy =    21.9518

      9  C    Isotropic =   163.4667   Anisotropy =    18.2976

     10  C    Isotropic =   174.6922   Anisotropy =    31.8647

     11  C    Isotropic =   175.2246   Anisotropy =    30.2031

     12  H    Isotropic =    30.1169   Anisotropy =     5.5992

     13  H    Isotropic =    27.5577   Anisotropy =     4.7278

     14  H    Isotropic =    29.7463   Anisotropy =     8.9744

     15  H    Isotropic =    30.6177   Anisotropy =     6.0331

     16  H    Isotropic =    30.6794   Anisotropy =     4.4308

     17  H    Isotropic =    30.6403   Anisotropy =     6.9881

     18  H    Isotropic =    30.0015   Anisotropy =     9.0105

     19  H    Isotropic =    30.5082   Anisotropy =     6.5795

     20  H    Isotropic =    29.7190   Anisotropy =     7.9961

     21  H    Isotropic =    31.0104   Anisotropy =     8.6531

     22  H    Isotropic =    30.6241   Anisotropy =    10.7408

     23  H    Isotropic =    30.5416   Anisotropy =    10.5912

     24  H    Isotropic =    30.5115   Anisotropy =    13.7683

     25  H    Isotropic =    29.9303   Anisotropy =     4.9125

     26  H    Isotropic =    31.0635   Anisotropy =     8.4867

     27  H    Isotropic =    30.3415   Anisotropy =     8.5902

     28  H    Isotropic =    30.7117   Anisotropy =    10.6413

     29  H    Isotropic =    31.0792   Anisotropy =     8.5233

     30  H    Isotropic =    29.9869   Anisotropy =     8.3043

     31  H    Isotropic =    30.7801   Anisotropy =    10.5872

 The electronic state is 1-A.
 Alpha  occ. eigenvalues --  -19.24452 -10.29331 -10.25338 -10.24978 -10.24932
 Alpha  occ. eigenvalues --  -10.24506 -10.24298 -10.24002 -10.23586 -10.23209
 Alpha  occ. eigenvalues --  -10.22896  -1.04937  -0.86032  -0.82380  -0.76870
 Alpha  occ. eigenvalues --   -0.75778  -0.70009  -0.69628  -0.63572  -0.62247
 Alpha  occ. eigenvalues --   -0.57609  -0.56940  -0.51304  -0.48911  -0.47235
 Alpha  occ. eigenvalues --   -0.45255  -0.45049  -0.44413  -0.42776  -0.42212
 Alpha  occ. eigenvalues --   -0.40302  -0.39960  -0.39247  -0.38981  -0.36914
 Alpha  occ. eigenvalues --   -0.35990  -0.35377  -0.34851  -0.34316  -0.32900
 Alpha  occ. eigenvalues --   -0.32774  -0.31818  -0.29889  -0.27788
 Alpha virt. eigenvalues --    0.00633   0.01732   0.01982   0.02670   0.03547
 Alpha virt. eigenvalues --    0.04352   0.04607   0.05080   0.06059   0.06577
 Alpha virt. eigenvalues --    0.07052   0.07278   0.07825   0.08909   0.09475

 Mulliken atomic charges:
              1
     1  C    0.321006
     2  C    0.269924
     3  C   -0.267533
     4  C   -0.512232
     5  C   -0.420777
     6  C   -0.580310
     7  C   -0.835511
     8  O   -0.513243
     9  C    0.460396
    10  C   -0.649652
    11  C   -0.698253
    12  H    0.148151
    13  H    0.146748
    14  H    0.160812
    15  H    0.152764
    16  H    0.158558
    17  H    0.163004
    18  H    0.159024
    19  H    0.164297
    20  H    0.173383
    21  H    0.162755
    22  H    0.166478
    23  H    0.164039
    24  H    0.354354
    25  H    0.161570
    26  H    0.163605
    27  H    0.158438
    28  H    0.164751
    29  H    0.162958
    30  H    0.178883
    31  H    0.161613
 Sum of Mulliken atomic charges =   0.00000

 Dipole moment (field-independent basis, Debye):
    X=             -0.8047    Y=              1.7833    Z=             -0.4200  Tot=              2.0010
 Quadrupole moment (field-independent basis, Debye-Ang):
   XX=            -72.0742   YY=            -76.9748   ZZ=            -70.1235
   XY=              0.7804   XZ=             -1.1460   YZ=              3.0017

 Normal termination of Gaussian 09 at Thu Sep 19 09:28:11 2024.
