 Gaussian 09, Revision C.01,
 Gaussian 09:  EM64L-G09RevC.01 23-Sep-2011

 --------------------------------------------------
 # mPW1PW91/6-31+G** nmr scrf=(pcm,solvent=benzene)
 --------------------------------------------------

 99/9=1/99;
 -------
 comment
 -------
 Charge =  0 Multiplicity = 1

                         Standard orientation:
 ---------------------------------------------------------------------
 Center     Atomic      Atomic             Coordinates (Angstroms)
 Number     Number       Type             X           Y           Z
 ---------------------------------------------------------------------
      1          6           0        2.240980   -0.017034   -0.193297
      2          6           0       -0.076803   -1.025676    0.184042
      3          6           0        0.136813    1.418222   -0.403179
      4          6           0       -0.666260    0.388087    0.413483
      5          6           0        1.628172    1.385765   -0.032239
      6          6           0        1.405365   -1.055928    0.577020
      7          6           0        3.710527   -0.048072    0.240691
      8          8           0       -0.121873   -1.439025   -1.188297
      9          6           0       -2.205942    0.540218    0.248213
     10          6           0       -2.983245   -0.215448    1.338759
     11          6           0       -2.776115    0.194519   -1.141377
     12          1           0        2.189589   -0.284592   -1.257255
     13          1           0       -0.619693   -1.756402    0.805180
     14          1           0       -0.270271    2.423991   -0.232571
     15          1           0        0.028448    1.206402   -1.473963
     16          1           0       -0.474704    0.609085    1.476634
     17          1           0        1.748115    1.711479    1.013364
     18          1           0        2.184489    2.107318   -0.645808
     19          1           0        1.487776   -0.870195    1.657982
     20          1           0        1.795922   -2.064448    0.392873
     21          1           0        3.814958    0.208607    1.303448
     22          1           0        4.148714   -1.042849    0.094643
     23          1           0        4.309839    0.668895   -0.333771
     24          1           0       -1.049238   -1.483685   -1.458930
     25          1           0       -2.400545    1.612268    0.403301
     26          1           0       -2.859534   -1.301721    1.247595
     27          1           0       -2.648808    0.074220    2.342026
     28          1           0       -4.057157   -0.004274    1.270719
     29          1           0       -2.859178   -0.891477   -1.293947
     30          1           0       -2.179840    0.614246   -1.957877
     31          1           0       -3.794853    0.587413   -1.239959
 ---------------------------------------------------------------------

 SCF Done:  E(RmPW1PW91) =  -468.281689910     A.U. after   13 cycles

      1  C    Isotropic =   167.2749   Anisotropy =    14.4458

      2  C    Isotropic =   127.2251   Anisotropy =    55.0851

      3  C    Isotropic =   167.0162   Anisotropy =    23.0614

      4  C    Isotropic =   147.1458   Anisotropy =    15.6500

      5  C    Isotropic =   158.8948   Anisotropy =    20.9896

      6  C    Isotropic =   152.5150   Anisotropy =    23.5296

      7  C    Isotropic =   173.2654   Anisotropy =    37.9707

      8  O    Isotropic =   285.0586   Anisotropy =    76.8766

      9  C    Isotropic =   159.9163   Anisotropy =    20.7701

     10  C    Isotropic =   173.3362   Anisotropy =    35.4714

     11  C    Isotropic =   176.4977   Anisotropy =    23.9697

     12  H    Isotropic =    29.4205   Anisotropy =     5.4608

     13  H    Isotropic =    27.2562   Anisotropy =     5.0814

     14  H    Isotropic =    30.5345   Anisotropy =     8.8033

     15  H    Isotropic =    29.3840   Anisotropy =     5.1501

     16  H    Isotropic =    30.3986   Anisotropy =     4.3818

     17  H    Isotropic =    30.5477   Anisotropy =     6.8969

     18  H    Isotropic =    29.9103   Anisotropy =     8.9549

     19  H    Isotropic =    30.6566   Anisotropy =     6.6182

     20  H    Isotropic =    29.7379   Anisotropy =     7.9071

     21  H    Isotropic =    31.0809   Anisotropy =     8.4863

     22  H    Isotropic =    30.6498   Anisotropy =    10.6700

     23  H    Isotropic =    30.6042   Anisotropy =    10.5669

     24  H    Isotropic =    30.7348   Anisotropy =    18.7693

     25  H    Isotropic =    29.9820   Anisotropy =     7.2239

     26  H    Isotropic =    30.5448   Anisotropy =     6.9612

     27  H    Isotropic =    30.7276   Anisotropy =     9.9847

     28  H    Isotropic =    30.4903   Anisotropy =    10.5010

     29  H    Isotropic =    31.2564   Anisotropy =     6.9826

     30  H    Isotropic =    30.1359   Anisotropy =     7.3915

     31  H    Isotropic =    30.5134   Anisotropy =    11.1510

 The electronic state is 1-A.
 Alpha  occ. eigenvalues --  -19.24135 -10.29386 -10.25695 -10.24803 -10.24285
 Alpha  occ. eigenvalues --  -10.24246 -10.23691 -10.23655 -10.23639 -10.23629
 Alpha  occ. eigenvalues --  -10.22988  -1.04780  -0.85723  -0.82385  -0.76731
 Alpha  occ. eigenvalues --   -0.75597  -0.70841  -0.69229  -0.62576  -0.61910
 Alpha  occ. eigenvalues --   -0.57816  -0.56942  -0.51275  -0.48446  -0.47366
 Alpha  occ. eigenvalues --   -0.46043  -0.45539  -0.43005  -0.42766  -0.41786
 Alpha  occ. eigenvalues --   -0.40716  -0.39880  -0.39060  -0.38169  -0.37343
 Alpha  occ. eigenvalues --   -0.36919  -0.35575  -0.34765  -0.33435  -0.33089
 Alpha  occ. eigenvalues --   -0.32163  -0.31221  -0.29808  -0.27515
 Alpha virt. eigenvalues --    0.00425   0.01971   0.02163   0.02605   0.03700
 Alpha virt. eigenvalues --    0.04158   0.04698   0.05117   0.05390   0.06601
 Alpha virt. eigenvalues --    0.06976   0.07521   0.07995   0.08604   0.09497

 Mulliken atomic charges:
              1
     1  C    0.357140
     2  C    0.210948
     3  C   -0.292565
     4  C   -0.255745
     5  C   -0.471950
     6  C   -0.656991
     7  C   -0.751295
     8  O   -0.533251
     9  C    0.234272
    10  C   -0.632327
    11  C   -0.608737
    12  H    0.177064
    13  H    0.131030
    14  H    0.151022
    15  H    0.171225
    16  H    0.151324
    17  H    0.156340
    18  H    0.155605
    19  H    0.162074
    20  H    0.169311
    21  H    0.158981
    22  H    0.163339
    23  H    0.161651
    24  H    0.349326
    25  H    0.154677
    26  H    0.161714
    27  H    0.164833
    28  H    0.166944
    29  H    0.139102
    30  H    0.178419
    31  H    0.176518
 Sum of Mulliken atomic charges =   0.00000

 Dipole moment (field-independent basis, Debye):
    X=             -1.6108    Y=              0.7750    Z=              0.9230  Tot=              2.0118
 Quadrupole moment (field-independent basis, Debye-Ang):
   XX=            -69.6771   YY=            -73.3357   ZZ=            -72.6779
   XY=              1.2294   XZ=              1.7450   YZ=             -1.5436

 Normal termination of Gaussian 09 at Thu Sep 19 10:10:27 2024.
