 Gaussian 09, Revision C.01,
 Gaussian 09:  AM64L-G09RevC.01 23-Sep-2011

 --------------------------------------------------
 # mPW1PW91/6-31+G** nmr scrf=(pcm,solvent=benzene)
 --------------------------------------------------

 99/9=1/99;
 -------
 comment
 -------
 Charge =  0 Multiplicity = 1

                         Standard orientation:
 ---------------------------------------------------------------------
 Center     Atomic      Atomic             Coordinates (Angstroms)
 Number     Number       Type             X           Y           Z
 ---------------------------------------------------------------------
      1          6           0        2.214598   -0.104267    0.258538
      2          6           0        0.124054    1.091939   -0.631939
      3          6           0       -0.120416   -1.037741    0.719452
      4          6           0       -0.706735   -0.199419   -0.434917
      5          6           0        1.362593   -1.366735    0.481725
      6          6           0        1.607833    0.755724   -0.866789
      7          6           0        3.682118   -0.445735   -0.022784
      8          8           0       -0.023573    2.041641    0.432878
      9          6           0       -2.241182    0.042328   -0.357908
     10          6           0       -2.744038    0.574407    0.994674
     11          6           0       -3.022683   -1.221562   -0.757219
     12          1           0        2.189077    0.485914    1.190476
     13          1           0       -0.263304    1.625366   -1.508043
     14          1           0       -0.692092   -1.965086    0.844433
     15          1           0       -0.223156   -0.495165    1.671116
     16          1           0       -0.538083   -0.778635   -1.357490
     17          1           0        1.450755   -2.014678   -0.403952
     18          1           0        1.762846   -1.942214    1.327242
     19          1           0        1.702463    0.212029   -1.818541
     20          1           0        2.168767    1.692348   -0.975124
     21          1           0        3.776283   -1.036128   -0.943396
     22          1           0        4.285824    0.461184   -0.146232
     23          1           0        4.118594   -1.031925    0.794890
     24          1           0        0.314553    1.632839    1.244483
     25          1           0       -2.466167    0.811256   -1.112871
     26          1           0       -2.602485   -0.163824    1.794184
     27          1           0       -2.224482    1.493531    1.274261
     28          1           0       -3.818277    0.788740    0.940203
     29          1           0       -2.855816   -2.042054   -0.047865
     30          1           0       -2.732772   -1.577901   -1.753337
     31          1           0       -4.100802   -1.022352   -0.774463
 ---------------------------------------------------------------------

 SCF Done:  E(RmPW1PW91) =  -468.282020899     A.U. after   12 cycles

      1  C    Isotropic =   166.9229   Anisotropy =    17.9513

      2  C    Isotropic =   120.0972   Anisotropy =    36.1247

      3  C    Isotropic =   174.6469   Anisotropy =    21.8386

      4  C    Isotropic =   148.0481   Anisotropy =    17.3053

      5  C    Isotropic =   159.8286   Anisotropy =    18.9220

      6  C    Isotropic =   151.6115   Anisotropy =    23.9798

      7  C    Isotropic =   173.1573   Anisotropy =    37.9213

      8  O    Isotropic =   290.4495   Anisotropy =    20.2614

      9  C    Isotropic =   160.1692   Anisotropy =    18.6900

     10  C    Isotropic =   177.6809   Anisotropy =    26.5345

     11  C    Isotropic =   172.3445   Anisotropy =    37.8578

     12  H    Isotropic =    30.0831   Anisotropy =     5.5460

     13  H    Isotropic =    27.7441   Anisotropy =     5.3201

     14  H    Isotropic =    30.0948   Anisotropy =     8.9705

     15  H    Isotropic =    30.3571   Anisotropy =     5.6799

     16  H    Isotropic =    30.3724   Anisotropy =     4.6659

     17  H    Isotropic =    30.6820   Anisotropy =     6.9477

     18  H    Isotropic =    29.9291   Anisotropy =     8.9087

     19  H    Isotropic =    30.4503   Anisotropy =     6.5554

     20  H    Isotropic =    29.8358   Anisotropy =     8.0486

     21  H    Isotropic =    30.9960   Anisotropy =     8.6153

     22  H    Isotropic =    30.6364   Anisotropy =    10.7846

     23  H    Isotropic =    30.5249   Anisotropy =    10.5178

     24  H    Isotropic =    30.4952   Anisotropy =    12.1175

     25  H    Isotropic =    29.7142   Anisotropy =     6.9359

     26  H    Isotropic =    31.0094   Anisotropy =     6.7296

     27  H    Isotropic =    29.6409   Anisotropy =     7.6606

     28  H    Isotropic =    30.8526   Anisotropy =    10.8218

     29  H    Isotropic =    30.5983   Anisotropy =     6.8758

     30  H    Isotropic =    30.7706   Anisotropy =     9.9407

     31  H    Isotropic =    30.6706   Anisotropy =    10.6153

 The electronic state is 1-A.
 Alpha  occ. eigenvalues --  -19.24444 -10.29447 -10.25500 -10.24989 -10.24874
 Alpha  occ. eigenvalues --  -10.24493 -10.24360 -10.24064 -10.23639 -10.23195
 Alpha  occ. eigenvalues --  -10.22521  -1.04965  -0.86073  -0.82265  -0.76795
 Alpha  occ. eigenvalues --   -0.75896  -0.69816  -0.69583  -0.63886  -0.62407
 Alpha  occ. eigenvalues --   -0.57648  -0.56467  -0.50839  -0.48536  -0.47099
 Alpha  occ. eigenvalues --   -0.46954  -0.45271  -0.43347  -0.42482  -0.42009
 Alpha  occ. eigenvalues --   -0.41355  -0.39692  -0.39413  -0.38002  -0.37389
 Alpha  occ. eigenvalues --   -0.35921  -0.35352  -0.34902  -0.34401  -0.32995
 Alpha  occ. eigenvalues --   -0.32682  -0.31789  -0.30080  -0.27360
 Alpha virt. eigenvalues --    0.00595   0.01543   0.01963   0.02759   0.03580
 Alpha virt. eigenvalues --    0.04373   0.04441   0.04743   0.06209   0.06643
 Alpha virt. eigenvalues --    0.07051   0.07104   0.07722   0.08703   0.09021

 Mulliken atomic charges:
              1
     1  C    0.335218
     2  C    0.160953
     3  C   -0.333148
     4  C   -0.300390
     5  C   -0.431261
     6  C   -0.530934
     7  C   -0.827270
     8  O   -0.487511
     9  C    0.330314
    10  C   -0.683012
    11  C   -0.649956
    12  H    0.145827
    13  H    0.144513
    14  H    0.164351
    15  H    0.159975
    16  H    0.151266
    17  H    0.163717
    18  H    0.159350
    19  H    0.164792
    20  H    0.173460
    21  H    0.163298
    22  H    0.166375
    23  H    0.164001
    24  H    0.355255
    25  H    0.149064
    26  H    0.159472
    27  H    0.189397
    28  H    0.158993
    29  H    0.160132
    30  H    0.159562
    31  H    0.164196
 Sum of Mulliken atomic charges =   0.00000

 Dipole moment (field-independent basis, Debye):
    X=              0.8370    Y=             -1.8193    Z=             -0.0165  Tot=              2.0027
 Quadrupole moment (field-independent basis, Debye-Ang):
   XX=            -72.1395   YY=            -78.3681   ZZ=            -69.0594
   XY=              0.8099   XZ=              1.3709   YZ=             -0.5782

 Normal termination of Gaussian 09 at Thu Sep 19 09:44:35 2024.
