 Gaussian 09, Revision C.01,
 Gaussian 09:  EM64L-G09RevC.01 23-Sep-2011

 --------------------------------------------------
 # mPW1PW91/6-31+G** nmr scrf=(pcm,solvent=benzene)
 --------------------------------------------------

 99/9=1/99;
 -------
 comment
 -------
 Charge =  0 Multiplicity = 1

                         Standard orientation:
 ---------------------------------------------------------------------
 Center     Atomic      Atomic             Coordinates (Angstroms)
 Number     Number       Type             X           Y           Z
 ---------------------------------------------------------------------
      1          6           0        2.123383   -0.211266   -0.239613
      2          6           0        0.129340    1.356357   -0.507331
      3          6           0       -0.076007   -1.065959   -1.225691
      4          6           0       -0.863345    0.183692   -0.755128
      5          6           0        1.170231   -1.408819   -0.390601
      6          6           0        1.359321    0.994737    0.335174
      7          6           0        3.354937   -0.561038    0.602772
      8          8           0       -0.516464    2.534045   -0.018231
      9          6           0       -1.923594   -0.052808    0.362605
     10          6           0       -1.462389   -0.783486    1.636831
     11          6           0       -3.158465   -0.770851   -0.212056
     12          1           0        2.470796    0.068899   -1.247498
     13          1           0        0.498884    1.656005   -1.497314
     14          1           0        0.252194   -0.886493   -2.259908
     15          1           0       -0.743415   -1.935408   -1.274753
     16          1           0       -1.464113    0.515776   -1.613379
     17          1           0        1.701089   -2.245410   -0.865108
     18          1           0        0.881749   -1.757347    0.609067
     19          1           0        2.011990    1.875957    0.383333
     20          1           0        1.059814    0.772488    1.370752
     21          1           0        3.910418   -1.398366    0.163548
     22          1           0        4.039450    0.291973    0.681745
     23          1           0        3.065737   -0.851862    1.621083
     24          1           0       -0.698873    2.395889    0.924418
     25          1           0       -2.263259    0.949242    0.659457
     26          1           0       -1.183369   -1.822518    1.427167
     27          1           0       -0.608527   -0.302262    2.124376
     28          1           0       -2.281220   -0.811235    2.366260
     29          1           0       -2.915936   -1.785671   -0.551788
     30          1           0       -3.577671   -0.224155   -1.064552
     31          1           0       -3.944502   -0.861223    0.547175
 ---------------------------------------------------------------------

 SCF Done:  E(RmPW1PW91) =  -468.276647538     A.U. after   12 cycles

      1  C    Isotropic =   160.9360   Anisotropy =     8.9356

      2  C    Isotropic =   121.9275   Anisotropy =    48.3257

      3  C    Isotropic =   169.8905   Anisotropy =    19.3108

      4  C    Isotropic =   151.1517   Anisotropy =    14.9685

      5  C    Isotropic =   162.8368   Anisotropy =    17.5818

      6  C    Isotropic =   153.6281   Anisotropy =    34.2237

      7  C    Isotropic =   173.3122   Anisotropy =    37.7382

      8  O    Isotropic =   276.3018   Anisotropy =    41.9796

      9  C    Isotropic =   167.8129   Anisotropy =     9.9697

     10  C    Isotropic =   173.5208   Anisotropy =    22.1139

     11  C    Isotropic =   171.6874   Anisotropy =    40.2949

     12  H    Isotropic =    30.0185   Anisotropy =     7.3581

     13  H    Isotropic =    27.8470   Anisotropy =     5.1382

     14  H    Isotropic =    30.1453   Anisotropy =    10.0515

     15  H    Isotropic =    29.6237   Anisotropy =     7.9400

     16  H    Isotropic =    29.8820   Anisotropy =     7.2975

     17  H    Isotropic =    30.3302   Anisotropy =     9.1714

     18  H    Isotropic =    30.5201   Anisotropy =     5.0279

     19  H    Isotropic =    29.7984   Anisotropy =     7.4331

     20  H    Isotropic =    30.5920   Anisotropy =     2.9464

     21  H    Isotropic =    30.5333   Anisotropy =    10.6746

     22  H    Isotropic =    30.5434   Anisotropy =    10.6794

     23  H    Isotropic =    30.9364   Anisotropy =     7.8342

     24  H    Isotropic =    30.9460   Anisotropy =    13.5274

     25  H    Isotropic =    29.4252   Anisotropy =     6.2227

     26  H    Isotropic =    30.7026   Anisotropy =     6.0726

     27  H    Isotropic =    30.5237   Anisotropy =     7.2449

     28  H    Isotropic =    30.6873   Anisotropy =    10.7061

     29  H    Isotropic =    30.4236   Anisotropy =     6.9759

     30  H    Isotropic =    30.8201   Anisotropy =    10.8282

     31  H    Isotropic =    30.6245   Anisotropy =    10.5077

 The electronic state is 1-A.
 Alpha  occ. eigenvalues --  -19.24650 -10.29468 -10.25310 -10.25262 -10.24787
 Alpha  occ. eigenvalues --  -10.24325 -10.24139 -10.23972 -10.23570 -10.23514
 Alpha  occ. eigenvalues --  -10.23327  -1.05141  -0.86015  -0.82218  -0.76868
 Alpha  occ. eigenvalues --   -0.75427  -0.70720  -0.69577  -0.63406  -0.62860
 Alpha  occ. eigenvalues --   -0.58414  -0.55247  -0.51340  -0.48354  -0.47771
 Alpha  occ. eigenvalues --   -0.46807  -0.44786  -0.43615  -0.42751  -0.41650
 Alpha  occ. eigenvalues --   -0.41566  -0.39595  -0.39364  -0.38722  -0.37322
 Alpha  occ. eigenvalues --   -0.37242  -0.35351  -0.34434  -0.33816  -0.33287
 Alpha  occ. eigenvalues --   -0.32291  -0.30913  -0.30438  -0.27736
 Alpha virt. eigenvalues --    0.00837   0.01416   0.02036   0.02174   0.03749
 Alpha virt. eigenvalues --    0.04195   0.04512   0.04928   0.05635   0.06408
 Alpha virt. eigenvalues --    0.07159   0.07805   0.08417   0.08561   0.08957

 Mulliken atomic charges:
              1
     1  C    0.222387
     2  C   -0.172715
     3  C   -0.449889
     4  C   -0.054539
     5  C   -0.315586
     6  C   -0.305993
     7  C   -0.716808
     8  O   -0.469653
     9  C    0.135267
    10  C   -0.554734
    11  C   -0.707919
    12  H    0.158000
    13  H    0.159127
    14  H    0.165460
    15  H    0.156924
    16  H    0.155884
    17  H    0.156332
    18  H    0.156133
    19  H    0.172860
    20  H    0.147314
    21  H    0.163647
    22  H    0.164232
    23  H    0.161497
    24  H    0.354555
    25  H    0.148988
    26  H    0.166165
    27  H    0.149811
    28  H    0.165474
    29  H    0.160400
    30  H    0.164241
    31  H    0.163136
 Sum of Mulliken atomic charges =   0.00000

 Dipole moment (field-independent basis, Debye):
    X=              0.4520    Y=             -1.7267    Z=              0.7457  Tot=              1.9344
 Quadrupole moment (field-independent basis, Debye-Ang):
   XX=            -71.6155   YY=            -79.3807   ZZ=            -69.5653
   XY=              1.2608   XZ=             -2.0332   YZ=              3.0187

 Normal termination of Gaussian 09 at Thu Sep 19 11:07:35 2024.
