 Gaussian 09, Revision C.01,
 Gaussian 09:  AM64L-G09RevC.01 23-Sep-2011

 --------------------------------------------------
 # mPW1PW91/6-31+G** nmr scrf=(pcm,solvent=benzene)
 --------------------------------------------------

 99/9=1/99;
 -------
 comment
 -------
 Charge =  0 Multiplicity = 1

                         Standard orientation:
 ---------------------------------------------------------------------
 Center     Atomic      Atomic             Coordinates (Angstroms)
 Number     Number       Type             X           Y           Z
 ---------------------------------------------------------------------
      1          6           0        2.306943   -0.537758   -0.205207
      2          6           0        0.255751    0.908991   -0.879698
      3          6           0       -0.052136   -1.120228    0.617007
      4          6           0       -0.688452   -0.251070   -0.483708
      5          6           0        1.319043   -1.659953    0.179233
      6          6           0        1.654415    0.396388   -1.249045
      7          6           0        2.855153    0.212048    1.020566
      8          8           0        0.409943    1.893713    0.154854
      9          6           0       -2.143481    0.215079   -0.179438
     10          6           0       -2.385121    0.668780    1.273016
     11          6           0       -3.164141   -0.871955   -0.557103
     12          1           0        3.167358   -1.012915   -0.698944
     13          1           0       -0.169415    1.400964   -1.771024
     14          1           0       -0.714872   -1.959341    0.865532
     15          1           0        0.060521   -0.529487    1.533042
     16          1           0       -0.750666   -0.874719   -1.390778
     17          1           0        1.177410   -2.323141   -0.687331
     18          1           0        1.751706   -2.279446    0.976023
     19          1           0        1.557364   -0.152262   -2.196518
     20          1           0        2.299627    1.261052   -1.446619
     21          1           0        3.360635   -0.483360    1.702558
     22          1           0        3.586561    0.969373    0.713785
     23          1           0        2.066433    0.730145    1.571206
     24          1           0       -0.422771    2.384503    0.216990
     25          1           0       -2.343688    1.078929   -0.835613
     26          1           0       -2.338270   -0.179515    1.965538
     27          1           0       -1.647793    1.401861    1.613292
     28          1           0       -3.381912    1.115047    1.371093
     29          1           0       -3.003970   -1.786261    0.028045
     30          1           0       -3.091788   -1.138089   -1.618245
     31          1           0       -4.189860   -0.534977   -0.364606
 ---------------------------------------------------------------------

 SCF Done:  E(RmPW1PW91) =  -468.277463178     A.U. after   13 cycles

      1  C    Isotropic =   164.7163   Anisotropy =     3.0274

      2  C    Isotropic =   118.5656   Anisotropy =    36.9447

      3  C    Isotropic =   177.9568   Anisotropy =    13.4246

      4  C    Isotropic =   147.1029   Anisotropy =    14.2419

      5  C    Isotropic =   161.5406   Anisotropy =    12.4868

      6  C    Isotropic =   156.3670   Anisotropy =    10.2248

      7  C    Isotropic =   174.3667   Anisotropy =    32.0081

      8  O    Isotropic =   288.3359   Anisotropy =    77.1109

      9  C    Isotropic =   160.5815   Anisotropy =    19.9569

     10  C    Isotropic =   176.4133   Anisotropy =    26.4127

     11  C    Isotropic =   172.1202   Anisotropy =    37.8254

     12  H    Isotropic =    29.8179   Anisotropy =    10.1624

     13  H    Isotropic =    27.6489   Anisotropy =     5.9046

     14  H    Isotropic =    30.3989   Anisotropy =     8.6390

     15  H    Isotropic =    29.6785   Anisotropy =     4.7285

     16  H    Isotropic =    30.4499   Anisotropy =     5.1100

     17  H    Isotropic =    30.0394   Anisotropy =     8.7645

     18  H    Isotropic =    29.9851   Anisotropy =     9.4884

     19  H    Isotropic =    29.9501   Anisotropy =     8.4911

     20  H    Isotropic =    29.7691   Anisotropy =     8.4554

     21  H    Isotropic =    30.8776   Anisotropy =    10.9679

     22  H    Isotropic =    30.5884   Anisotropy =     9.8568

     23  H    Isotropic =    29.5098   Anisotropy =     4.4184

     24  H    Isotropic =    30.5061   Anisotropy =    17.0762

     25  H    Isotropic =    30.0002   Anisotropy =     6.5406

     26  H    Isotropic =    30.7471   Anisotropy =     6.9143

     27  H    Isotropic =    30.3482   Anisotropy =     7.1903

     28  H    Isotropic =    30.7448   Anisotropy =    10.8388

     29  H    Isotropic =    30.5312   Anisotropy =     6.9989

     30  H    Isotropic =    30.7208   Anisotropy =    10.1339

     31  H    Isotropic =    30.7034   Anisotropy =    10.6022

 The electronic state is 1-A.
 Alpha  occ. eigenvalues --  -19.24351 -10.29463 -10.25567 -10.24677 -10.24568
 Alpha  occ. eigenvalues --  -10.23763 -10.23651 -10.23576 -10.23501 -10.23429
 Alpha  occ. eigenvalues --  -10.22163  -1.04849  -0.85657  -0.82111  -0.76076
 Alpha  occ. eigenvalues --   -0.75633  -0.70371  -0.69121  -0.63413  -0.61958
 Alpha  occ. eigenvalues --   -0.57186  -0.55077  -0.51643  -0.49775  -0.46576
 Alpha  occ. eigenvalues --   -0.45817  -0.45289  -0.43294  -0.42542  -0.40916
 Alpha  occ. eigenvalues --   -0.40105  -0.39703  -0.39217  -0.38259  -0.37279
 Alpha  occ. eigenvalues --   -0.36038  -0.35314  -0.34920  -0.33438  -0.32759
 Alpha  occ. eigenvalues --   -0.31865  -0.31365  -0.29508  -0.27417
 Alpha virt. eigenvalues --    0.00265   0.01732   0.02042   0.02514   0.03896
 Alpha virt. eigenvalues --    0.04280   0.04579   0.04814   0.05609   0.06786
 Alpha virt. eigenvalues --    0.07089   0.07373   0.07739   0.08664   0.08963

 Mulliken atomic charges:
              1
     1  C    0.290361
     2  C    0.119568
     3  C   -0.270259
     4  C   -0.054962
     5  C   -0.542306
     6  C   -0.563764
     7  C   -0.713683
     8  O   -0.543379
     9  C    0.087883
    10  C   -0.544602
    11  C   -0.665740
    12  H    0.149445
    13  H    0.135074
    14  H    0.157044
    15  H    0.177680
    16  H    0.147128
    17  H    0.157280
    18  H    0.155518
    19  H    0.162254
    20  H    0.167565
    21  H    0.152958
    22  H    0.157581
    23  H    0.187422
    24  H    0.365465
    25  H    0.144828
    26  H    0.171973
    27  H    0.154478
    28  H    0.165035
    29  H    0.165854
    30  H    0.163119
    31  H    0.163184
 Sum of Mulliken atomic charges =   0.00000

 Dipole moment (field-independent basis, Debye):
    X=             -1.5197    Y=             -0.4085    Z=             -0.9740  Tot=              1.8507
 Quadrupole moment (field-independent basis, Debye-Ang):
   XX=            -72.0328   YY=            -72.0811   ZZ=            -71.6435
   XY=             -3.9841   XZ=             -1.0677   YZ=             -0.9868

 Normal termination of Gaussian 09 at Thu Sep 19 10:30:19 2024.
