 Gaussian 09, Revision C.01,
 Gaussian 09:  AM64L-G09RevC.01 23-Sep-2011

 --------------------------------------------------
 # mPW1PW91/6-31+G** nmr scrf=(pcm,solvent=benzene)
 --------------------------------------------------

 99/9=1/99;
 -------
 comment
 -------
 Charge =  0 Multiplicity = 1

                         Standard orientation:
 ---------------------------------------------------------------------
 Center     Atomic      Atomic             Coordinates (Angstroms)
 Number     Number       Type             X           Y           Z
 ---------------------------------------------------------------------
      1          6           0       -2.295567   -0.561766    0.202404
      2          6           0       -0.250024    0.892842    0.882294
      3          6           0        0.070196   -1.090456   -0.654662
      4          6           0        0.698133   -0.250690    0.474399
      5          6           0       -1.296008   -1.656091   -0.231792
      6          6           0       -1.641044    0.353083    1.263012
      7          6           0       -2.875052    0.212537   -0.994209
      8          8           0       -0.320945    1.841217   -0.192127
      9          6           0        2.162674    0.207592    0.217025
     10          6           0        2.411069    0.821882   -1.170956
     11          6           0        3.151091   -0.943909    0.472326
     12          1           0       -3.141317   -1.064331    0.693975
     13          1           0        0.180682    1.391288    1.768136
     14          1           0        0.738392   -1.918222   -0.923340
     15          1           0       -0.041390   -0.475017   -1.553910
     16          1           0        0.736383   -0.896116    1.367292
     17          1           0       -1.143931   -2.349994    0.608429
     18          1           0       -1.729577   -2.249209   -1.047885
     19          1           0       -1.529334   -0.210852    2.200263
     20          1           0       -2.306779    1.198185    1.497749
     21          1           0       -3.390692   -0.469945   -1.681031
     22          1           0       -3.609792    0.955268   -0.656965
     23          1           0       -2.099612    0.743376   -1.552149
     24          1           0       -0.969134    2.517440    0.059023
     25          1           0        2.377245    0.987963    0.963570
     26          1           0        2.287358    0.075860   -1.965692
     27          1           0        1.725495    1.648399   -1.367629
     28          1           0        3.439752    1.197396   -1.236916
     29          1           0        2.991917   -1.772869   -0.228823
     30          1           0        3.053041   -1.343644    1.489237
     31          1           0        4.186052   -0.604852    0.344646
 ---------------------------------------------------------------------

 SCF Done:  E(RmPW1PW91) =  -468.278257867     A.U. after   13 cycles

      1  C    Isotropic =   164.8082   Anisotropy =     2.3282

      2  C    Isotropic =   119.1146   Anisotropy =    38.3220

      3  C    Isotropic =   178.4369   Anisotropy =    12.6573

      4  C    Isotropic =   147.1199   Anisotropy =    15.7494

      5  C    Isotropic =   161.3212   Anisotropy =    12.2664

      6  C    Isotropic =   152.9693   Anisotropy =    13.3930

      7  C    Isotropic =   173.9011   Anisotropy =    32.5547

      8  O    Isotropic =   272.0111   Anisotropy =    61.2477

      9  C    Isotropic =   159.4680   Anisotropy =    19.3896

     10  C    Isotropic =   177.1936   Anisotropy =    27.5667

     11  C    Isotropic =   172.2174   Anisotropy =    38.2728

     12  H    Isotropic =    29.8177   Anisotropy =    10.1000

     13  H    Isotropic =    27.5244   Anisotropy =     5.8758

     14  H    Isotropic =    30.3826   Anisotropy =     8.7768

     15  H    Isotropic =    29.5834   Anisotropy =     4.8181

     16  H    Isotropic =    30.4083   Anisotropy =     4.8591

     17  H    Isotropic =    30.0116   Anisotropy =     8.7618

     18  H    Isotropic =    29.9526   Anisotropy =     9.4096

     19  H    Isotropic =    29.7998   Anisotropy =     8.1328

     20  H    Isotropic =    30.1942   Anisotropy =     7.9039

     21  H    Isotropic =    30.7654   Anisotropy =    10.9335

     22  H    Isotropic =    30.7024   Anisotropy =     9.7100

     23  H    Isotropic =    29.3966   Anisotropy =     4.4166

     24  H    Isotropic =    31.0755   Anisotropy =    16.8725

     25  H    Isotropic =    29.7942   Anisotropy =     6.8684

     26  H    Isotropic =    30.8657   Anisotropy =     6.6030

     27  H    Isotropic =    29.5405   Anisotropy =     7.5811

     28  H    Isotropic =    30.9001   Anisotropy =    10.7534

     29  H    Isotropic =    30.5143   Anisotropy =     6.7804

     30  H    Isotropic =    30.7569   Anisotropy =    10.0085

     31  H    Isotropic =    30.7062   Anisotropy =    10.4978

 The electronic state is 1-A.
 Alpha  occ. eigenvalues --  -19.24319 -10.29482 -10.24926 -10.24671 -10.24537
 Alpha  occ. eigenvalues --  -10.24311 -10.23752 -10.23423 -10.22949 -10.22702
 Alpha  occ. eigenvalues --  -10.22023  -1.04901  -0.85606  -0.81742  -0.76032
 Alpha  occ. eigenvalues --   -0.75547  -0.69504  -0.69324  -0.63448  -0.61856
 Alpha  occ. eigenvalues --   -0.57169  -0.55230  -0.50617  -0.49243  -0.46832
 Alpha  occ. eigenvalues --   -0.46057  -0.45100  -0.42749  -0.42438  -0.41431
 Alpha  occ. eigenvalues --   -0.40315  -0.39868  -0.38808  -0.37944  -0.36546
 Alpha  occ. eigenvalues --   -0.36016  -0.35206  -0.34233  -0.33400  -0.32468
 Alpha  occ. eigenvalues --   -0.31825  -0.31096  -0.29463  -0.27428
 Alpha virt. eigenvalues --    0.00258   0.02046   0.02112   0.02383   0.03830
 Alpha virt. eigenvalues --    0.04384   0.04452   0.04938   0.05311   0.06921
 Alpha virt. eigenvalues --    0.07268   0.07752   0.07772   0.07896   0.09231

 Mulliken atomic charges:
              1
     1  C    0.289553
     2  C    0.148931
     3  C   -0.307024
     4  C   -0.030671
     5  C   -0.516142
     6  C   -0.599472
     7  C   -0.722149
     8  O   -0.558515
     9  C    0.157645
    10  C   -0.644639
    11  C   -0.622465
    12  H    0.150927
    13  H    0.132403
    14  H    0.155451
    15  H    0.181129
    16  H    0.146590
    17  H    0.158014
    18  H    0.155650
    19  H    0.166417
    20  H    0.149140
    21  H    0.158264
    22  H    0.155016
    23  H    0.189887
    24  H    0.371797
    25  H    0.145010
    26  H    0.159001
    27  H    0.194209
    28  H    0.154424
    29  H    0.161087
    30  H    0.157982
    31  H    0.162550
 Sum of Mulliken atomic charges =   0.00000

 Dipole moment (field-independent basis, Debye):
    X=             -1.1441    Y=              0.0480    Z=              1.5045  Tot=              1.8907
 Quadrupole moment (field-independent basis, Debye-Ang):
   XX=            -71.7614   YY=            -70.0878   ZZ=            -72.0133
   XY=             -2.5379   XZ=             -0.5160   YZ=              2.3453

 Normal termination of Gaussian 09 at Thu Sep 19 10:15:18 2024.
