 Gaussian 09, Revision C.01,
 Gaussian 09:  AM64L-G09RevC.01 23-Sep-2011

 --------------------------------------------------
 # mPW1PW91/6-31+G** nmr scrf=(pcm,solvent=benzene)
 --------------------------------------------------

 99/9=1/99;
 -------
 comment
 -------
 Charge =  0 Multiplicity = 1

                         Standard orientation:
 ---------------------------------------------------------------------
 Center     Atomic      Atomic             Coordinates (Angstroms)
 Number     Number       Type             X           Y           Z
 ---------------------------------------------------------------------
      1          6           0       -2.352163    0.162771   -0.420790
      2          6           0        0.004303   -0.935753   -0.521500
      3          6           0       -0.250888    1.401175    0.396040
      4          6           0        0.652165    0.466610   -0.429879
      5          6           0       -1.644809    1.524147   -0.240535
      6          6           0       -1.406182   -0.840622   -1.122367
      7          6           0       -2.941702   -0.373135    0.894705
      8          8           0       -0.124783   -1.581739    0.752395
      9          6           0        2.148321    0.524924   -0.006045
     10          6           0        3.068282   -0.176943   -1.018779
     11          6           0        2.472868    0.048212    1.423474
     12          1           0       -3.199770    0.325000   -1.102775
     13          1           0        0.609263   -1.571754   -1.187837
     14          1           0        0.211488    2.395111    0.466420
     15          1           0       -0.340752    1.021905    1.420627
     16          1           0        0.641470    0.851126   -1.463662
     17          1           0       -1.535019    2.001815   -1.225719
     18          1           0       -2.276725    2.193545    0.358124
     19          1           0       -1.291881   -0.542870   -2.174113
     20          1           0       -1.851004   -1.843364   -1.123440
     21          1           0       -3.658702    0.344502    1.313462
     22          1           0       -3.475615   -1.315518    0.722234
     23          1           0       -2.168311   -0.571870    1.639925
     24          1           0        0.764560   -1.732282    1.102287
     25          1           0        2.401197    1.595702   -0.035393
     26          1           0        2.906854   -1.262210   -1.032937
     27          1           0        2.902958    0.196285   -2.036500
     28          1           0        4.122741   -0.009648   -0.768584
     29          1           0        2.504524   -1.047878    1.501254
     30          1           0        1.759488    0.422328    2.164081
     31          1           0        3.470323    0.395671    1.717445
 ---------------------------------------------------------------------

 SCF Done:  E(RmPW1PW91) =  -468.276868075     A.U. after   13 cycles

      1  C    Isotropic =   164.4840   Anisotropy =     1.4686

      2  C    Isotropic =   125.3762   Anisotropy =    58.7076

      3  C    Isotropic =   171.1418   Anisotropy =    21.0797

      4  C    Isotropic =   146.4385   Anisotropy =    15.7361

      5  C    Isotropic =   160.7202   Anisotropy =    11.5272

      6  C    Isotropic =   155.8350   Anisotropy =    11.1519

      7  C    Isotropic =   173.5054   Anisotropy =    33.1346

      8  O    Isotropic =   280.8290   Anisotropy =    84.6811

      9  C    Isotropic =   159.6283   Anisotropy =    20.6680

     10  C    Isotropic =   173.8564   Anisotropy =    34.8115

     11  C    Isotropic =   176.1331   Anisotropy =    24.1994

     12  H    Isotropic =    29.7991   Anisotropy =    10.0132

     13  H    Isotropic =    27.2043   Anisotropy =     5.1578

     14  H    Isotropic =    30.7071   Anisotropy =     8.9369

     15  H    Isotropic =    29.2695   Anisotropy =     4.3045

     16  H    Isotropic =    30.3600   Anisotropy =     4.5996

     17  H    Isotropic =    29.9105   Anisotropy =     8.7613

     18  H    Isotropic =    29.9686   Anisotropy =     9.5241

     19  H    Isotropic =    30.1029   Anisotropy =     8.4985

     20  H    Isotropic =    29.7674   Anisotropy =     8.2883

     21  H    Isotropic =    30.8493   Anisotropy =    10.9915

     22  H    Isotropic =    30.5956   Anisotropy =     9.8282

     23  H    Isotropic =    29.3823   Anisotropy =     4.4196

     24  H    Isotropic =    30.8600   Anisotropy =    18.3543

     25  H    Isotropic =    29.9180   Anisotropy =     7.3386

     26  H    Isotropic =    30.5694   Anisotropy =     7.0327

     27  H    Isotropic =    30.6976   Anisotropy =    10.0426

     28  H    Isotropic =    30.4573   Anisotropy =    10.4469

     29  H    Isotropic =    31.2888   Anisotropy =     6.9788

     30  H    Isotropic =    30.0555   Anisotropy =     7.1578

     31  H    Isotropic =    30.4955   Anisotropy =    11.1246

 The electronic state is 1-A.
 Alpha  occ. eigenvalues --  -19.24094 -10.29365 -10.25671 -10.24770 -10.24549
 Alpha  occ. eigenvalues --  -10.24120 -10.23737 -10.23713 -10.23658 -10.23594
 Alpha  occ. eigenvalues --  -10.22092  -1.04723  -0.85627  -0.82195  -0.76337
 Alpha  occ. eigenvalues --   -0.75585  -0.70775  -0.69056  -0.62896  -0.62333
 Alpha  occ. eigenvalues --   -0.57873  -0.55112  -0.51562  -0.48995  -0.47399
 Alpha  occ. eigenvalues --   -0.45822  -0.44916  -0.43109  -0.42346  -0.41879
 Alpha  occ. eigenvalues --   -0.40499  -0.39814  -0.39129  -0.38441  -0.37575
 Alpha  occ. eigenvalues --   -0.36359  -0.35550  -0.34199  -0.33381  -0.32985
 Alpha  occ. eigenvalues --   -0.31843  -0.31348  -0.29423  -0.27440
 Alpha virt. eigenvalues --    0.00216   0.01722   0.02162   0.02636   0.03994
 Alpha virt. eigenvalues --    0.04208   0.04607   0.04755   0.05240   0.06686
 Alpha virt. eigenvalues --    0.07036   0.07884   0.07960   0.08399   0.09135

 Mulliken atomic charges:
              1
     1  C    0.307206
     2  C    0.085851
     3  C   -0.221253
     4  C   -0.173917
     5  C   -0.529855
     6  C   -0.597374
     7  C   -0.719124
     8  O   -0.512025
     9  C    0.180438
    10  C   -0.612084
    11  C   -0.589107
    12  H    0.149481
    13  H    0.133087
    14  H    0.151543
    15  H    0.170998
    16  H    0.151428
    17  H    0.156486
    18  H    0.154748
    19  H    0.162024
    20  H    0.167444
    21  H    0.152081
    22  H    0.156626
    23  H    0.188988
    24  H    0.350130
    25  H    0.156213
    26  H    0.161637
    27  H    0.164475
    28  H    0.167563
    29  H    0.134523
    30  H    0.177193
    31  H    0.174577
 Sum of Mulliken atomic charges =   0.00000

 Dipole moment (field-independent basis, Debye):
    X=              1.7257    Y=              0.8470    Z=             -0.8229  Tot=              2.0911
 Quadrupole moment (field-independent basis, Debye-Ang):
   XX=            -70.4730   YY=            -73.4294   ZZ=            -71.6430
   XY=             -2.0090   XZ=              2.5071   YZ=              0.8475

 Normal termination of Gaussian 09 at Thu Sep 19 10:30:06 2024.
