 Gaussian 09, Revision C.01,
 Gaussian 09:  AM64L-G09RevC.01 23-Sep-2011

 --------------------------------------------------
 # mPW1PW91/6-31+G** nmr scrf=(pcm,solvent=benzene)
 --------------------------------------------------

 99/9=1/99;
 -------
 comment
 -------
 Charge =  0 Multiplicity = 1

                         Standard orientation:
 ---------------------------------------------------------------------
 Center     Atomic      Atomic             Coordinates (Angstroms)
 Number     Number       Type             X           Y           Z
 ---------------------------------------------------------------------
      1          6           0       -2.353455    0.060320   -0.398979
      2          6           0        0.018315   -1.017778   -0.366645
      3          6           0       -0.251337    1.464224    0.044945
      4          6           0        0.649371    0.373701   -0.565266
      5          6           0       -1.663296    1.431519   -0.561981
      6          6           0       -1.420366   -1.057102   -0.917437
      7          6           0       -2.850647   -0.180987    1.036669
      8          8           0        0.068100   -1.348579    1.029217
      9          6           0        2.144927    0.511894   -0.159206
     10          6           0        3.024668   -0.558859   -0.824526
     11          6           0        2.418702    0.562102    1.354086
     12          1           0       -3.242378    0.059186   -1.046630
     13          1           0        0.610692   -1.757157   -0.928748
     14          1           0        0.201934    2.449883   -0.127194
     15          1           0       -0.308869    1.332204    1.130889
     16          1           0        0.632696    0.523966   -1.657863
     17          1           0       -1.591229    1.666815   -1.634343
     18          1           0       -2.287409    2.216317   -0.114297
     19          1           0       -1.353828   -0.986208   -2.012644
     20          1           0       -1.859082   -2.045003   -0.706888
     21          1           0       -3.559476    0.601046    1.335491
     22          1           0       -3.373582   -1.143485    1.109235
     23          1           0       -2.028559   -0.195452    1.756556
     24          1           0       -0.405649   -2.186852    1.146303
     25          1           0        2.456779    1.484704   -0.571563
     26          1           0        2.846973   -1.549167   -0.388819
     27          1           0        2.838924   -0.625472   -1.904237
     28          1           0        4.086902   -0.326811   -0.683832
     29          1           0        2.129922   -0.373192    1.840014
     30          1           0        1.871547    1.376311    1.841095
     31          1           0        3.487611    0.732805    1.533780
 ---------------------------------------------------------------------

 SCF Done:  E(RmPW1PW91) =  -468.277895506     A.U. after   13 cycles

      1  C    Isotropic =   164.7210   Anisotropy =     2.1624

      2  C    Isotropic =   125.1515   Anisotropy =    57.2185

      3  C    Isotropic =   171.7752   Anisotropy =    19.4899

      4  C    Isotropic =   147.7032   Anisotropy =    15.2472

      5  C    Isotropic =   160.9913   Anisotropy =    11.6158

      6  C    Isotropic =   152.9888   Anisotropy =    13.3527

      7  C    Isotropic =   173.9118   Anisotropy =    32.6375

      8  O    Isotropic =   272.3783   Anisotropy =    70.1156

      9  C    Isotropic =   159.6491   Anisotropy =    18.1176

     10  C    Isotropic =   174.6356   Anisotropy =    32.5263

     11  C    Isotropic =   177.4866   Anisotropy =    25.1713

     12  H    Isotropic =    29.7831   Anisotropy =    10.0935

     13  H    Isotropic =    27.2554   Anisotropy =     5.1613

     14  H    Isotropic =    30.6043   Anisotropy =     8.9545

     15  H    Isotropic =    29.2694   Anisotropy =     4.3867

     16  H    Isotropic =    30.3030   Anisotropy =     4.9736

     17  H    Isotropic =    29.9454   Anisotropy =     8.8867

     18  H    Isotropic =    29.9441   Anisotropy =     9.5388

     19  H    Isotropic =    29.8712   Anisotropy =     8.2285

     20  H    Isotropic =    30.1690   Anisotropy =     7.7281

     21  H    Isotropic =    30.7636   Anisotropy =    11.0040

     22  H    Isotropic =    30.7019   Anisotropy =     9.6890

     23  H    Isotropic =    29.3855   Anisotropy =     4.4231

     24  H    Isotropic =    31.2068   Anisotropy =    16.8938

     25  H    Isotropic =    29.8877   Anisotropy =     7.6971

     26  H    Isotropic =    30.4420   Anisotropy =     7.0191

     27  H    Isotropic =    30.7433   Anisotropy =     9.7530

     28  H    Isotropic =    30.5318   Anisotropy =    10.5865

     29  H    Isotropic =    30.0264   Anisotropy =     6.1815

     30  H    Isotropic =    30.3621   Anisotropy =     7.7504

     31  H    Isotropic =    30.9652   Anisotropy =    10.8677

 The electronic state is 1-A.
 Alpha  occ. eigenvalues --  -19.24236 -10.29386 -10.24899 -10.24710 -10.24570
 Alpha  occ. eigenvalues --  -10.24302 -10.23733 -10.23416 -10.22920 -10.22701
 Alpha  occ. eigenvalues --  -10.22013  -1.04794  -0.85585  -0.81727  -0.76095
 Alpha  occ. eigenvalues --   -0.75482  -0.69459  -0.69348  -0.63104  -0.62349
 Alpha  occ. eigenvalues --   -0.57108  -0.55037  -0.50653  -0.49149  -0.47225
 Alpha  occ. eigenvalues --   -0.45474  -0.44814  -0.43052  -0.42855  -0.41213
 Alpha  occ. eigenvalues --   -0.40182  -0.39554  -0.38522  -0.38325  -0.36549
 Alpha  occ. eigenvalues --   -0.35954  -0.35439  -0.34414  -0.33284  -0.32230
 Alpha  occ. eigenvalues --   -0.31727  -0.31234  -0.29393  -0.27354
 Alpha virt. eigenvalues --    0.00207   0.01951   0.02064   0.02458   0.03874
 Alpha virt. eigenvalues --    0.04260   0.04488   0.05038   0.05168   0.06836
 Alpha virt. eigenvalues --    0.07429   0.07783   0.07937   0.08603   0.09215

 Mulliken atomic charges:
              1
     1  C    0.296653
     2  C    0.158488
     3  C   -0.272578
     4  C   -0.047026
     5  C   -0.531149
     6  C   -0.659165
     7  C   -0.733482
     8  O   -0.545715
     9  C    0.195456
    10  C   -0.647355
    11  C   -0.633197
    12  H    0.150894
    13  H    0.135964
    14  H    0.155113
    15  H    0.177349
    16  H    0.156770
    17  H    0.157379
    18  H    0.155637
    19  H    0.166592
    20  H    0.149435
    21  H    0.158348
    22  H    0.155104
    23  H    0.189875
    24  H    0.367407
    25  H    0.150728
    26  H    0.169121
    27  H    0.159061
    28  H    0.164476
    29  H    0.190719
    30  H    0.156383
    31  H    0.152715
 Sum of Mulliken atomic charges =   0.00000

 Dipole moment (field-independent basis, Debye):
    X=             -0.9708    Y=             -0.8269    Z=             -1.2974  Tot=              1.8192
 Quadrupole moment (field-independent basis, Debye-Ang):
   XX=            -72.7801   YY=            -67.8539   ZZ=            -73.4283
   XY=              2.1115   XZ=             -0.9298   YZ=             -0.3869

 Normal termination of Gaussian 09 at Thu Sep 19 10:06:22 2024.
