 Gaussian 09, Revision C.01,
 Gaussian 09:  AM64L-G09RevC.01 23-Sep-2011

 --------------------------------------------------
 # mPW1PW91/6-31+G** nmr scrf=(pcm,solvent=benzene)
 --------------------------------------------------

 99/9=1/99;
 -------
 comment
 -------
 Charge =  0 Multiplicity = 1

                         Standard orientation:
 ---------------------------------------------------------------------
 Center     Atomic      Atomic             Coordinates (Angstroms)
 Number     Number       Type             X           Y           Z
 ---------------------------------------------------------------------
      1          6           0        2.120411   -0.168185   -0.243393
      2          6           0        0.119870    1.374211   -0.445140
      3          6           0       -0.068253   -1.001881   -1.285501
      4          6           0       -0.864836    0.207268   -0.731745
      5          6           0        1.191945   -1.372160   -0.482837
      6          6           0        1.334899    0.989584    0.397134
      7          6           0        3.346039   -0.554279    0.592019
      8          8           0       -0.503080    2.488753    0.197139
      9          6           0       -1.891676   -0.098174    0.402055
     10          6           0       -1.411801   -0.976918    1.569655
     11          6           0       -3.175250   -0.705227   -0.193893
     12          1           0        2.477658    0.178835   -1.226961
     13          1           0        0.506172    1.696662   -1.429245
     14          1           0        0.243364   -0.760351   -2.312102
     15          1           0       -0.726946   -1.875177   -1.373091
     16          1           0       -1.488860    0.566680   -1.566664
     17          1           0        1.740422   -2.157242   -1.021280
     18          1           0        0.916964   -1.803354    0.487076
     19          1           0        1.974389    1.875119    0.501963
     20          1           0        1.015550    0.716090    1.410747
     21          1           0        3.918737   -1.355481    0.109464
     22          1           0        4.017439    0.301027    0.733499
     23          1           0        3.047602   -0.911239    1.586195
     24          1           0       -1.228185    2.789195   -0.373712
     25          1           0       -2.157269    0.878129    0.827117
     26          1           0       -1.183727   -1.999009    1.244159
     27          1           0       -0.525369   -0.572790    2.065789
     28          1           0       -2.203425   -1.049421    2.325499
     29          1           0       -2.981998   -1.677397   -0.665789
     30          1           0       -3.615948   -0.049837   -0.955051
     31          1           0       -3.930023   -0.865901    0.585153
 ---------------------------------------------------------------------

 SCF Done:  E(RmPW1PW91) =  -468.276959165     A.U. after   12 cycles

      1  C    Isotropic =   161.4710   Anisotropy =     7.5296

      2  C    Isotropic =   121.4556   Anisotropy =    45.2674

      3  C    Isotropic =   169.9091   Anisotropy =    19.5715

      4  C    Isotropic =   149.1755   Anisotropy =    18.5217

      5  C    Isotropic =   163.2645   Anisotropy =    17.9902

      6  C    Isotropic =   157.3461   Anisotropy =    28.9320

      7  C    Isotropic =   173.2546   Anisotropy =    37.6708

      8  O    Isotropic =   279.7430   Anisotropy =    90.9738

      9  C    Isotropic =   168.1971   Anisotropy =    10.0101

     10  C    Isotropic =   173.0495   Anisotropy =    22.2506

     11  C    Isotropic =   171.3050   Anisotropy =    40.3617

     12  H    Isotropic =    30.0622   Anisotropy =     7.5400

     13  H    Isotropic =    27.7037   Anisotropy =     5.1259

     14  H    Isotropic =    30.1517   Anisotropy =    10.0347

     15  H    Isotropic =    29.6384   Anisotropy =     7.8882

     16  H    Isotropic =    30.1873   Anisotropy =     6.7677

     17  H    Isotropic =    30.3332   Anisotropy =     9.2225

     18  H    Isotropic =    30.4264   Anisotropy =     5.1392

     19  H    Isotropic =    29.8821   Anisotropy =     7.9359

     20  H    Isotropic =    30.2522   Anisotropy =     3.4954

     21  H    Isotropic =    30.5403   Anisotropy =    10.6708

     22  H    Isotropic =    30.5122   Anisotropy =    10.7494

     23  H    Isotropic =    30.8764   Anisotropy =     7.8961

     24  H    Isotropic =    30.9863   Anisotropy =    18.2108

     25  H    Isotropic =    29.0058   Anisotropy =     6.3604

     26  H    Isotropic =    30.7396   Anisotropy =     6.1090

     27  H    Isotropic =    30.3301   Anisotropy =     7.2617

     28  H    Isotropic =    30.6586   Anisotropy =    10.7271

     29  H    Isotropic =    30.4463   Anisotropy =     7.0488

     30  H    Isotropic =    30.9613   Anisotropy =    10.5903

     31  H    Isotropic =    30.6650   Anisotropy =    10.5549

 The electronic state is 1-A.
 Alpha  occ. eigenvalues --  -19.24661 -10.29483 -10.25028 -10.24970 -10.24862
 Alpha  occ. eigenvalues --  -10.24379 -10.23828 -10.23610 -10.23300 -10.23257
 Alpha  occ. eigenvalues --  -10.23060  -1.05151  -0.85941  -0.81941  -0.76701
 Alpha  occ. eigenvalues --   -0.75523  -0.70456  -0.69375  -0.62961  -0.61991
 Alpha  occ. eigenvalues --   -0.58725  -0.54772  -0.51462  -0.49046  -0.48032
 Alpha  occ. eigenvalues --   -0.45816  -0.44826  -0.43500  -0.42857  -0.41791
 Alpha  occ. eigenvalues --   -0.40695  -0.39497  -0.38911  -0.38422  -0.37184
 Alpha  occ. eigenvalues --   -0.36803  -0.34915  -0.34059  -0.33872  -0.33350
 Alpha  occ. eigenvalues --   -0.31583  -0.31108  -0.30106  -0.27908
 Alpha virt. eigenvalues --    0.00349   0.01663   0.02059   0.02306   0.03814
 Alpha virt. eigenvalues --    0.04061   0.04755   0.04948   0.05681   0.06495
 Alpha virt. eigenvalues --    0.07508   0.07668   0.08370   0.08569   0.08874

 Mulliken atomic charges:
              1
     1  C    0.197111
     2  C   -0.046746
     3  C   -0.481776
     4  C   -0.113445
     5  C   -0.290288
     6  C   -0.361558
     7  C   -0.707422
     8  O   -0.514523
     9  C    0.162957
    10  C   -0.632421
    11  C   -0.607469
    12  H    0.155693
    13  H    0.143068
    14  H    0.164158
    15  H    0.160035
    16  H    0.143361
    17  H    0.155479
    18  H    0.158867
    19  H    0.168003
    20  H    0.161906
    21  H    0.162044
    22  H    0.163918
    23  H    0.162688
    24  H    0.363743
    25  H    0.167314
    26  H    0.162196
    27  H    0.157813
    28  H    0.163228
    29  H    0.161156
    30  H    0.157720
    31  H    0.163189
 Sum of Mulliken atomic charges =   0.00000

 Dipole moment (field-independent basis, Debye):
    X=             -0.4503    Y=             -0.7859    Z=             -1.5833  Tot=              1.8241
 Quadrupole moment (field-independent basis, Debye-Ang):
   XX=            -70.1383   YY=            -74.9094   ZZ=            -71.6994
   XY=             -2.3379   XZ=              0.5846   YZ=             -3.9471

 Normal termination of Gaussian 09 at Thu Sep 19 10:27:44 2024.
