 Gaussian 09, Revision C.01,
 Gaussian 09:  AM64L-G09RevC.01 23-Sep-2011

 --------------------------------------------------
 # mPW1PW91/6-31+G** nmr scrf=(pcm,solvent=benzene)
 --------------------------------------------------

 99/9=1/99;
 -------
 comment
 -------
 Charge =  0 Multiplicity = 1

                         Standard orientation:
 ---------------------------------------------------------------------
 Center     Atomic      Atomic             Coordinates (Angstroms)
 Number     Number       Type             X           Y           Z
 ---------------------------------------------------------------------
      1          6           0        2.299215   -0.541271   -0.216838
      2          6           0        0.240214    0.918345   -0.876820
      3          6           0       -0.060717   -1.101458    0.633135
      4          6           0       -0.698618   -0.247757   -0.481854
      5          6           0        1.309768   -1.652060    0.200382
      6          6           0        1.637667    0.393424   -1.258395
      7          6           0        2.897889    0.187998    1.001330
      8          8           0        0.311786    1.968189    0.097508
      9          6           0       -2.168153    0.186907   -0.217899
     10          6           0       -2.414879    0.828164    1.158153
     11          6           0       -3.140895   -0.984484   -0.440368
     12          1           0        3.146151   -1.024311   -0.724256
     13          1           0       -0.189345    1.417957   -1.753726
     14          1           0       -0.721946   -1.935525    0.897309
     15          1           0        0.045794   -0.509024    1.552678
     16          1           0       -0.729517   -0.887280   -1.379503
     17          1           0        1.158189   -2.329882   -0.651950
     18          1           0        1.746746   -2.258403    1.005011
     19          1           0        1.535297   -0.166208   -2.199318
     20          1           0        2.287585    1.251391   -1.470583
     21          1           0        3.547287   -0.489606    1.568443
     22          1           0        3.498760    1.051441    0.694826
     23          1           0        2.140040    0.547895    1.708664
     24          1           0        0.689573    1.598883    0.909094
     25          1           0       -2.401801    0.949226   -0.976756
     26          1           0       -2.243028    0.113279    1.972828
     27          1           0       -1.765872    1.693190    1.310274
     28          1           0       -3.456424    1.162511    1.237184
     29          1           0       -2.974569   -1.791547    0.284371
     30          1           0       -3.036039   -1.411932   -1.445146
     31          1           0       -4.180111   -0.654420   -0.324450
 ---------------------------------------------------------------------

 SCF Done:  E(RmPW1PW91) =  -468.276521903     A.U. after   12 cycles

      1  C    Isotropic =   165.7532   Anisotropy =     2.5373

      2  C    Isotropic =   119.0074   Anisotropy =    40.0308

      3  C    Isotropic =   179.7311   Anisotropy =    15.5143

      4  C    Isotropic =   147.6837   Anisotropy =    16.9566

      5  C    Isotropic =   162.7047   Anisotropy =    10.4943

      6  C    Isotropic =   154.6770   Anisotropy =    11.6597

      7  C    Isotropic =   173.2886   Anisotropy =    31.0359

      8  O    Isotropic =   278.3303   Anisotropy =    33.3742

      9  C    Isotropic =   160.2077   Anisotropy =    18.4779

     10  C    Isotropic =   177.6041   Anisotropy =    27.4191

     11  C    Isotropic =   172.5711   Anisotropy =    38.1283

     12  H    Isotropic =    29.7476   Anisotropy =    10.2727

     13  H    Isotropic =    27.8042   Anisotropy =     5.6163

     14  H    Isotropic =    30.2768   Anisotropy =     8.9751

     15  H    Isotropic =    30.1021   Anisotropy =     5.0151

     16  H    Isotropic =    30.3478   Anisotropy =     4.7567

     17  H    Isotropic =    30.0237   Anisotropy =     8.9370

     18  H    Isotropic =    30.0123   Anisotropy =     9.6023

     19  H    Isotropic =    29.8824   Anisotropy =     8.2376

     20  H    Isotropic =    29.8441   Anisotropy =     8.3004

     21  H    Isotropic =    30.5101   Anisotropy =    11.3933

     22  H    Isotropic =    30.3959   Anisotropy =     9.4244

     23  H    Isotropic =    30.5654   Anisotropy =     4.8348

     24  H    Isotropic =    30.8723   Anisotropy =    12.5409

     25  H    Isotropic =    29.7500   Anisotropy =     7.0617

     26  H    Isotropic =    30.9384   Anisotropy =     6.5216

     27  H    Isotropic =    29.7056   Anisotropy =     7.6057

     28  H    Isotropic =    30.8643   Anisotropy =    10.7976

     29  H    Isotropic =    30.5582   Anisotropy =     6.7861

     30  H    Isotropic =    30.7684   Anisotropy =    10.0409

     31  H    Isotropic =    30.7108   Anisotropy =    10.5267

 The electronic state is 1-A.
 Alpha  occ. eigenvalues --  -19.24237 -10.29380 -10.25517 -10.24949 -10.24824
 Alpha  occ. eigenvalues --  -10.24401 -10.24366 -10.24089 -10.24055 -10.23174
 Alpha  occ. eigenvalues --  -10.22525  -1.04808  -0.85942  -0.82137  -0.76558
 Alpha  occ. eigenvalues --   -0.75922  -0.70047  -0.69799  -0.63967  -0.62756
 Alpha  occ. eigenvalues --   -0.57115  -0.55903  -0.51676  -0.47919  -0.47017
 Alpha  occ. eigenvalues --   -0.45764  -0.45392  -0.44602  -0.42968  -0.41982
 Alpha  occ. eigenvalues --   -0.40777  -0.40110  -0.39516  -0.38192  -0.37491
 Alpha  occ. eigenvalues --   -0.35980  -0.35488  -0.34284  -0.34226  -0.33332
 Alpha  occ. eigenvalues --   -0.32335  -0.31833  -0.29868  -0.27118
 Alpha virt. eigenvalues --    0.00328   0.01665   0.01934   0.02608   0.03977
 Alpha virt. eigenvalues --    0.04278   0.04430   0.04692   0.05853   0.06636
 Alpha virt. eigenvalues --    0.06909   0.07550   0.07616   0.08329   0.09170

 Mulliken atomic charges:
              1
     1  C    0.132693
     2  C    0.069788
     3  C   -0.303024
     4  C   -0.238308
     5  C   -0.447942
     6  C   -0.481324
     7  C   -0.655679
     8  O   -0.469739
     9  C    0.307253
    10  C   -0.680949
    11  C   -0.631462
    12  H    0.157038
    13  H    0.145783
    14  H    0.163644
    15  H    0.159577
    16  H    0.150152
    17  H    0.163710
    18  H    0.158724
    19  H    0.164378
    20  H    0.171061
    21  H    0.171544
    22  H    0.174453
    23  H    0.133844
    24  H    0.345287
    25  H    0.149762
    26  H    0.159893
    27  H    0.187552
    28  H    0.159005
    29  H    0.159969
    30  H    0.159290
    31  H    0.164028
 Sum of Mulliken atomic charges =   0.00000

 Dipole moment (field-independent basis, Debye):
    X=              0.8234    Y=             -2.0271    Z=             -0.0445  Tot=              2.1884
 Quadrupole moment (field-independent basis, Debye-Ang):
   XX=            -70.5344   YY=            -78.0789   ZZ=            -69.5447
   XY=             -0.4903   XZ=              1.0989   YZ=              0.2908

 Normal termination of Gaussian 09 at Thu Sep 19 10:33:40 2024.
