 Gaussian 09, Revision C.01,
 Gaussian 09:  AM64L-G09RevC.01 23-Sep-2011

 --------------------------------------------------
 # mPW1PW91/6-31+G** nmr scrf=(pcm,solvent=benzene)
 --------------------------------------------------

 99/9=1/99;
 -------
 comment
 -------
 Charge =  0 Multiplicity = 1

                         Standard orientation:
 ---------------------------------------------------------------------
 Center     Atomic      Atomic             Coordinates (Angstroms)
 Number     Number       Type             X           Y           Z
 ---------------------------------------------------------------------
      1          6           0        2.357008    0.264187    0.444324
      2          6           0        0.118906   -1.079804    0.387946
      3          6           0        0.152792    1.364712   -0.290134
      4          6           0       -0.691754    0.240465    0.350890
      5          6           0        1.509859    1.552363    0.408845
      6          6           0        1.509374   -0.890690    1.021721
      7          6           0        3.008676   -0.049175   -0.914777
      8          8           0        0.185282   -1.718701   -0.894403
      9          6           0       -2.084018    0.073015   -0.315770
     10          6           0       -2.934638    1.350805   -0.210076
     11          6           0       -2.869748   -1.117314    0.260146
     12          1           0        3.186031    0.430709    1.146684
     13          1           0       -0.420092   -1.805150    1.005023
     14          1           0       -0.394161    2.312434   -0.259292
     15          1           0        0.303725    1.150058   -1.359963
     16          1           0       -0.861731    0.522325    1.403870
     17          1           0        1.323768    1.881094    1.441594
     18          1           0        2.072283    2.361383   -0.076254
     19          1           0        1.355658   -0.695903    2.093470
     20          1           0        2.052234   -1.841192    0.949250
     21          1           0        3.737586    0.727218   -1.176726
     22          1           0        3.534413   -1.010184   -0.889092
     23          1           0        2.289637   -0.095226   -1.741079
     24          1           0        0.531721   -1.079403   -1.534261
     25          1           0       -1.914635   -0.134324   -1.381943
     26          1           0       -3.101977    1.627442    0.839625
     27          1           0       -2.476104    2.208160   -0.712670
     28          1           0       -3.917996    1.193917   -0.668551
     29          1           0       -2.989502   -1.026257    1.348412
     30          1           0       -2.377610   -2.069728    0.045566
     31          1           0       -3.874246   -1.159154   -0.177122
 ---------------------------------------------------------------------

 SCF Done:  E(RmPW1PW91) =  -468.278542482     A.U. after   13 cycles

      1  C    Isotropic =   166.3402   Anisotropy =     4.4283

      2  C    Isotropic =   126.1622   Anisotropy =    53.6653

      3  C    Isotropic =   174.7676   Anisotropy =    22.1561

      4  C    Isotropic =   146.8021   Anisotropy =    17.9369

      5  C    Isotropic =   162.9116   Anisotropy =    10.8565

      6  C    Isotropic =   155.2276   Anisotropy =    11.0457

      7  C    Isotropic =   173.2694   Anisotropy =    30.9375

      8  O    Isotropic =   287.1906   Anisotropy =    24.6750

      9  C    Isotropic =   163.3546   Anisotropy =    18.1754

     10  C    Isotropic =   174.6016   Anisotropy =    32.1115

     11  C    Isotropic =   175.3852   Anisotropy =    30.8616

     12  H    Isotropic =    29.7582   Anisotropy =    10.2836

     13  H    Isotropic =    27.5971   Anisotropy =     4.9143

     14  H    Isotropic =    29.9653   Anisotropy =     8.9731

     15  H    Isotropic =    30.4085   Anisotropy =     5.3448

     16  H    Isotropic =    30.5990   Anisotropy =     4.4831

     17  H    Isotropic =    29.9943   Anisotropy =     8.9072

     18  H    Isotropic =    30.0429   Anisotropy =     9.7500

     19  H    Isotropic =    29.9702   Anisotropy =     8.3136

     20  H    Isotropic =    29.7631   Anisotropy =     8.0971

     21  H    Isotropic =    30.6016   Anisotropy =    11.4310

     22  H    Isotropic =    30.3962   Anisotropy =     9.5954

     23  H    Isotropic =    30.5212   Anisotropy =     4.8075

     24  H    Isotropic =    30.9203   Anisotropy =    13.0607

     25  H    Isotropic =    29.9633   Anisotropy =     4.8238

     26  H    Isotropic =    31.0603   Anisotropy =     8.5635

     27  H    Isotropic =    30.2910   Anisotropy =     8.5372

     28  H    Isotropic =    30.7204   Anisotropy =    10.5452

     29  H    Isotropic =    31.0682   Anisotropy =     8.5891

     30  H    Isotropic =    29.9673   Anisotropy =     8.3933

     31  H    Isotropic =    30.7833   Anisotropy =    10.5919

 The electronic state is 1-A.
 Alpha  occ. eigenvalues --  -19.24271 -10.29289 -10.25309 -10.25002 -10.24971
 Alpha  occ. eigenvalues --  -10.24465 -10.24299 -10.23974 -10.23798 -10.23227
 Alpha  occ. eigenvalues --  -10.22865  -1.04791  -0.85905  -0.82253  -0.76610
 Alpha  occ. eigenvalues --   -0.75822  -0.70076  -0.69920  -0.63383  -0.62939
 Alpha  occ. eigenvalues --   -0.57489  -0.55749  -0.52219  -0.48039  -0.47156
 Alpha  occ. eigenvalues --   -0.45492  -0.44469  -0.44065  -0.43843  -0.42653
 Alpha  occ. eigenvalues --   -0.40247  -0.39864  -0.39219  -0.38813  -0.37490
 Alpha  occ. eigenvalues --   -0.36140  -0.35390  -0.34343  -0.33918  -0.33093
 Alpha  occ. eigenvalues --   -0.32666  -0.31848  -0.29711  -0.27512
 Alpha virt. eigenvalues --    0.00370   0.01771   0.01998   0.02599   0.03984
 Alpha virt. eigenvalues --    0.04243   0.04579   0.04743   0.05914   0.06801
 Alpha virt. eigenvalues --    0.07056   0.07438   0.07658   0.08729   0.09183

 Mulliken atomic charges:
              1
     1  C    0.124650
     2  C    0.158057
     3  C   -0.223813
     4  C   -0.481036
     5  C   -0.442813
     6  C   -0.514018
     7  C   -0.651532
     8  O   -0.489240
     9  C    0.457244
    10  C   -0.651145
    11  C   -0.682200
    12  H    0.156278
    13  H    0.147292
    14  H    0.159907
    15  H    0.150044
    16  H    0.158218
    17  H    0.162853
    18  H    0.158638
    19  H    0.162981
    20  H    0.171039
    21  H    0.167638
    22  H    0.172113
    23  H    0.133411
    24  H    0.345549
    25  H    0.158376
    26  H    0.163555
    27  H    0.158029
    28  H    0.164877
    29  H    0.162754
    30  H    0.181029
    31  H    0.161265
 Sum of Mulliken atomic charges =   0.00000

 Dipole moment (field-independent basis, Debye):
    X=              0.7028    Y=              1.9183    Z=              0.6015  Tot=              2.1297
 Quadrupole moment (field-independent basis, Debye-Ang):
   XX=            -70.9243   YY=            -77.1268   ZZ=            -70.0515
   XY=              0.1731   XZ=             -0.2486   YZ=             -2.5451

 Normal termination of Gaussian 09 at Thu Sep 19 10:09:18 2024.
