 Gaussian 09, Revision C.01,
 Gaussian 09:  EM64L-G09RevC.01 23-Sep-2011

 --------------------------------------------------
 # mPW1PW91/6-31+G** nmr scrf=(pcm,solvent=benzene)
 --------------------------------------------------

 99/9=1/99;
 -------
 comment
 -------
 Charge =  0 Multiplicity = 1

                         Standard orientation:
 ---------------------------------------------------------------------
 Center     Atomic      Atomic             Coordinates (Angstroms)
 Number     Number       Type             X           Y           Z
 ---------------------------------------------------------------------
      1          6           0       -2.355330    0.042930   -0.406010
      2          6           0        0.028516   -1.028629   -0.361930
      3          6           0       -0.264982    1.460741    0.046557
      4          6           0        0.648387    0.375425   -0.559098
      5          6           0       -1.674708    1.419751   -0.566890
      6          6           0       -1.412354   -1.074503   -0.910560
      7          6           0       -2.889853   -0.180866    1.020679
      8          8           0        0.105373   -1.511606    0.986416
      9          6           0        2.140579    0.528967   -0.149534
     10          6           0        3.035248   -0.508112   -0.847027
     11          6           0        2.416110    0.534883    1.365040
     12          1           0       -3.236497    0.030979   -1.063208
     13          1           0        0.618996   -1.758154   -0.926182
     14          1           0        0.183863    2.449578   -0.115868
     15          1           0       -0.330160    1.345362    1.137975
     16          1           0        0.629154    0.535546   -1.650051
     17          1           0       -1.593916    1.652466   -1.638480
     18          1           0       -2.304426    2.203775   -0.125581
     19          1           0       -1.349650   -0.998787   -2.005980
     20          1           0       -1.835475   -2.061547   -0.686840
     21          1           0       -3.693668    0.531386    1.242644
     22          1           0       -3.293950   -1.192609    1.137415
     23          1           0       -2.127934   -0.044456    1.797067
     24          1           0       -0.281325   -0.841831    1.569364
     25          1           0        2.436971    1.519412   -0.530056
     26          1           0        2.866399   -1.514489   -0.447125
     27          1           0        2.852927   -0.537789   -1.928828
     28          1           0        4.094290   -0.268774   -0.695102
     29          1           0        2.166388   -0.429710    1.815219
     30          1           0        1.846791    1.314975    1.883802
     31          1           0        3.478566    0.733998    1.551120
 ---------------------------------------------------------------------

 SCF Done:  E(RmPW1PW91) =  -468.276368002     A.U. after   12 cycles

      1  C    Isotropic =   165.5070   Anisotropy =     3.0323

      2  C    Isotropic =   124.8917   Anisotropy =    59.2979

      3  C    Isotropic =   172.9747   Anisotropy =    22.1589

      4  C    Isotropic =   148.4894   Anisotropy =    16.1503

      5  C    Isotropic =   162.1909   Anisotropy =    10.2482

      6  C    Isotropic =   154.7592   Anisotropy =    12.2045

      7  C    Isotropic =   173.0870   Anisotropy =    30.9433

      8  O    Isotropic =   275.0170   Anisotropy =    26.3133

      9  C    Isotropic =   159.6099   Anisotropy =    18.4134

     10  C    Isotropic =   174.6476   Anisotropy =    32.9260

     11  C    Isotropic =   178.0195   Anisotropy =    24.9803

     12  H    Isotropic =    29.7442   Anisotropy =    10.2846

     13  H    Isotropic =    27.4757   Anisotropy =     4.7601

     14  H    Isotropic =    30.5104   Anisotropy =     9.0791

     15  H    Isotropic =    29.7852   Anisotropy =     4.5422

     16  H    Isotropic =    30.2283   Anisotropy =     4.9744

     17  H    Isotropic =    29.9507   Anisotropy =     9.0156

     18  H    Isotropic =    30.0018   Anisotropy =     9.6798

     19  H    Isotropic =    29.9805   Anisotropy =     8.3127

     20  H    Isotropic =    29.8161   Anisotropy =     8.0312

     21  H    Isotropic =    30.5964   Anisotropy =    11.3356

     22  H    Isotropic =    30.3914   Anisotropy =     9.5070

     23  H    Isotropic =    30.4696   Anisotropy =     4.7372

     24  H    Isotropic =    30.9380   Anisotropy =    11.2197

     25  H    Isotropic =    29.9501   Anisotropy =     7.6353

     26  H    Isotropic =    30.3532   Anisotropy =     6.9899

     27  H    Isotropic =    30.7377   Anisotropy =     9.8416

     28  H    Isotropic =    30.5282   Anisotropy =    10.6500

     29  H    Isotropic =    30.1564   Anisotropy =     6.1862

     30  H    Isotropic =    30.5052   Anisotropy =     7.6746

     31  H    Isotropic =    30.9068   Anisotropy =    10.9500

 The electronic state is 1-A.
 Alpha  occ. eigenvalues --  -19.24171 -10.29304 -10.25364 -10.25092 -10.24957
 Alpha  occ. eigenvalues --  -10.24494 -10.24324 -10.23961 -10.23799 -10.23064
 Alpha  occ. eigenvalues --  -10.22674  -1.04718  -0.85923  -0.82117  -0.76648
 Alpha  occ. eigenvalues --   -0.75820  -0.69944  -0.69848  -0.63570  -0.62955
 Alpha  occ. eigenvalues --   -0.57495  -0.55767  -0.51231  -0.48672  -0.46881
 Alpha  occ. eigenvalues --   -0.45759  -0.44762  -0.44379  -0.43027  -0.41896
 Alpha  occ. eigenvalues --   -0.40759  -0.40079  -0.38863  -0.38496  -0.37834
 Alpha  occ. eigenvalues --   -0.36206  -0.35336  -0.34726  -0.33770  -0.33270
 Alpha  occ. eigenvalues --   -0.32356  -0.31748  -0.29798  -0.27060
 Alpha virt. eigenvalues --    0.00238   0.01703   0.01858   0.02643   0.03975
 Alpha virt. eigenvalues --    0.04224   0.04333   0.04902   0.05738   0.06459
 Alpha virt. eigenvalues --    0.07061   0.07767   0.08038   0.08464   0.09175

 Mulliken atomic charges:
              1
     1  C    0.111491
     2  C    0.060781
     3  C   -0.182794
     4  C   -0.378531
     5  C   -0.450424
     6  C   -0.494186
     7  C   -0.653027
     8  O   -0.456734
     9  C    0.384862
    10  C   -0.668838
    11  C   -0.681140
    12  H    0.156228
    13  H    0.147958
    14  H    0.164616
    15  H    0.151277
    16  H    0.160666
    17  H    0.162805
    18  H    0.158367
    19  H    0.162873
    20  H    0.170859
    21  H    0.167841
    22  H    0.172079
    23  H    0.134360
    24  H    0.342233
    25  H    0.151248
    26  H    0.174196
    27  H    0.159759
    28  H    0.165004
    29  H    0.189615
    30  H    0.156795
    31  H    0.159761
 Sum of Mulliken atomic charges =   0.00000

 Dipole moment (field-independent basis, Debye):
    X=             -0.9316    Y=              1.7777    Z=             -0.9307  Tot=              2.2123
 Quadrupole moment (field-independent basis, Debye-Ang):
   XX=            -70.8959   YY=            -75.7087   ZZ=            -70.9605
   XY=              0.8248   XZ=             -1.0745   YZ=              2.6367

 Normal termination of Gaussian 09 at Thu Sep 19 10:42:01 2024.
