 Gaussian 09, Revision C.01,
 Gaussian 09:  AM64L-G09RevC.01 23-Sep-2011

 --------------------------------------------------
 # mPW1PW91/6-31+G** nmr scrf=(pcm,solvent=benzene)
 --------------------------------------------------

 99/9=1/99;
 -------
 comment
 -------
 Charge =  0 Multiplicity = 1

                         Standard orientation:
 ---------------------------------------------------------------------
 Center     Atomic      Atomic             Coordinates (Angstroms)
 Number     Number       Type             X           Y           Z
 ---------------------------------------------------------------------
      1          6           0       -2.172968   -0.058109    0.072121
      2          6           0       -0.049733    1.273921    0.584666
      3          6           0       -0.180534   -1.097634    1.272034
      4          6           0        0.796647   -0.009533    0.761318
      5          6           0       -1.363829   -1.343106    0.322324
      6          6           0       -1.232301    1.074857   -0.375705
      7          6           0       -3.312235   -0.278591   -0.929323
      8          8           0        0.779721    2.360156    0.168114
      9          6           0        1.640341   -0.423429   -0.486998
     10          6           0        2.055819   -1.906249   -0.468735
     11          6           0        2.910364    0.437838   -0.623707
     12          1           0       -2.619749    0.241812    1.033907
     13          1           0       -0.465963    1.507358    1.581304
     14          1           0       -0.576021   -0.775527    2.246463
     15          1           0        0.355509   -2.032421    1.462195
     16          1           0        1.513638    0.190733    1.571191
     17          1           0       -2.020924   -2.119033    0.737481
     18          1           0       -0.999344   -1.730207   -0.640322
     19          1           0       -1.797710    2.017218   -0.446425
     20          1           0       -0.849240    0.869189   -1.384465
     21          1           0       -3.996120   -1.064507   -0.586806
     22          1           0       -3.899412    0.636333   -1.074950
     23          1           0       -2.920190   -0.581926   -1.908671
     24          1           0        0.205630    3.134449    0.058924
     25          1           0        1.033748   -0.267244   -1.389887
     26          1           0        2.613151   -2.151394    0.445084
     27          1           0        1.205078   -2.591829   -0.536482
     28          1           0        2.715091   -2.119154   -1.318516
     29          1           0        3.572327    0.281512    0.239054
     30          1           0        2.672326    1.500112   -0.678952
     31          1           0        3.470981    0.153486   -1.523009
 ---------------------------------------------------------------------

 SCF Done:  E(RmPW1PW91) =  -468.279145862     A.U. after   12 cycles

      1  C    Isotropic =   161.6853   Anisotropy =    10.4871

      2  C    Isotropic =   119.6423   Anisotropy =    47.8598

      3  C    Isotropic =   165.8236   Anisotropy =    14.0156

      4  C    Isotropic =   150.2090   Anisotropy =    18.9577

      5  C    Isotropic =   165.0666   Anisotropy =    22.1504

      6  C    Isotropic =   153.9600   Anisotropy =    40.7710

      7  C    Isotropic =   173.2636   Anisotropy =    37.8609

      8  O    Isotropic =   269.2405   Anisotropy =    61.2937

      9  C    Isotropic =   167.8199   Anisotropy =    11.6918

     10  C    Isotropic =   173.9500   Anisotropy =    28.4007

     11  C    Isotropic =   170.7033   Anisotropy =    37.4963

     12  H    Isotropic =    30.0834   Anisotropy =     7.3946

     13  H    Isotropic =    27.6168   Anisotropy =     4.4318

     14  H    Isotropic =    30.3917   Anisotropy =     9.3606

     15  H    Isotropic =    29.7137   Anisotropy =     7.7027

     16  H    Isotropic =    29.9448   Anisotropy =     6.5059

     17  H    Isotropic =    30.3290   Anisotropy =     9.6815

     18  H    Isotropic =    30.6014   Anisotropy =     4.8378

     19  H    Isotropic =    30.3246   Anisotropy =     7.2755

     20  H    Isotropic =    30.1039   Anisotropy =     3.0825

     21  H    Isotropic =    30.5393   Anisotropy =    10.7281

     22  H    Isotropic =    30.6380   Anisotropy =    10.6155

     23  H    Isotropic =    30.8796   Anisotropy =     7.8774

     24  H    Isotropic =    30.9394   Anisotropy =    17.7266

     25  H    Isotropic =    29.5555   Anisotropy =     5.2520

     26  H    Isotropic =    30.9625   Anisotropy =     8.7231

     27  H    Isotropic =    30.4035   Anisotropy =     7.9276

     28  H    Isotropic =    30.7726   Anisotropy =    10.2465

     29  H    Isotropic =    31.0669   Anisotropy =     8.4711

     30  H    Isotropic =    29.1647   Anisotropy =     7.6274

     31  H    Isotropic =    30.8041   Anisotropy =    10.7976

 The electronic state is 1-A.
 Alpha  occ. eigenvalues --  -19.24551 -10.29598 -10.25307 -10.24772 -10.24708
 Alpha  occ. eigenvalues --  -10.24188 -10.24076 -10.24023 -10.23546 -10.22956
 Alpha  occ. eigenvalues --  -10.21871  -1.05169  -0.86203  -0.81749  -0.76721
 Alpha  occ. eigenvalues --   -0.75389  -0.69909  -0.69093  -0.63063  -0.61636
 Alpha  occ. eigenvalues --   -0.58935  -0.54249  -0.52363  -0.49915  -0.46656
 Alpha  occ. eigenvalues --   -0.46191  -0.45058  -0.44093  -0.42385  -0.40490
 Alpha  occ. eigenvalues --   -0.39783  -0.39363  -0.38531  -0.38495  -0.37758
 Alpha  occ. eigenvalues --   -0.37180  -0.35410  -0.34051  -0.33576  -0.32448
 Alpha  occ. eigenvalues --   -0.31540  -0.31127  -0.30089  -0.28045
 Alpha virt. eigenvalues --    0.00653   0.01563   0.01946   0.02373   0.03948
 Alpha virt. eigenvalues --    0.04505   0.04669   0.05018   0.05415   0.06940
 Alpha virt. eigenvalues --    0.07164   0.07572   0.08321   0.08367   0.09021

 Mulliken atomic charges:
              1
     1  C    0.160208
     2  C   -0.119724
     3  C   -0.433226
     4  C   -0.128818
     5  C   -0.317890
     6  C   -0.357670
     7  C   -0.716452
     8  O   -0.492309
     9  C    0.355782
    10  C   -0.676589
    11  C   -0.694727
    12  H    0.158477
    13  H    0.141378
    14  H    0.160287
    15  H    0.163830
    16  H    0.159451
    17  H    0.157528
    18  H    0.160054
    19  H    0.148229
    20  H    0.172436
    21  H    0.163858
    22  H    0.162424
    23  H    0.163800
    24  H    0.362770
    25  H    0.150896
    26  H    0.168117
    27  H    0.160108
    28  H    0.162312
    29  H    0.156585
    30  H    0.197421
    31  H    0.151454
 Sum of Mulliken atomic charges =   0.00000

 Dipole moment (field-independent basis, Debye):
    X=             -2.0818    Y=              0.0218    Z=              0.2890  Tot=              2.1018
 Quadrupole moment (field-independent basis, Debye-Ang):
   XX=            -74.7548   YY=            -69.5169   ZZ=            -71.7814
   XY=             -4.4601   XZ=             -0.5253   YZ=             -0.2058

 Normal termination of Gaussian 09 at Thu Sep 19 10:07:36 2024.
