 Gaussian 09, Revision C.01,
 Gaussian 09:  AM64L-G09RevC.01 23-Sep-2011

 --------------------------------------------------
 # mPW1PW91/6-31+G** nmr scrf=(pcm,solvent=benzene)
 --------------------------------------------------

 99/9=1/99;
 -------
 comment
 -------
 Charge =  0 Multiplicity = 1

                         Standard orientation:
 ---------------------------------------------------------------------
 Center     Atomic      Atomic             Coordinates (Angstroms)
 Number     Number       Type             X           Y           Z
 ---------------------------------------------------------------------
      1          6           0        2.120130   -0.194319   -0.240902
      2          6           0        0.122595    1.361433   -0.474809
      3          6           0       -0.077511   -1.025386   -1.260753
      4          6           0       -0.867257    0.203025   -0.741162
      5          6           0        1.175750   -1.391726   -0.445625
      6          6           0        1.341494    0.981548    0.375160
      7          6           0        3.347556   -0.570640    0.596044
      8          8           0       -0.607086    2.450525    0.093452
      9          6           0       -1.906639   -0.070229    0.390179
     10          6           0       -1.435319   -0.895605    1.600329
     11          6           0       -3.170429   -0.719984   -0.202941
     12          1           0        2.473329    0.126799   -1.234682
     13          1           0        0.508729    1.664294   -1.465614
     14          1           0        0.240810   -0.812424   -2.291709
     15          1           0       -0.743964   -1.893993   -1.329680
     16          1           0       -1.480759    0.556952   -1.581507
     17          1           0        1.714124   -2.200053   -0.959233
     18          1           0        0.893108   -1.788398    0.536907
     19          1           0        2.001908    1.858828    0.461247
     20          1           0        1.023111    0.732427    1.395156
     21          1           0        3.910165   -1.387554    0.128334
     22          1           0        4.027993    0.281484    0.713316
     23          1           0        3.052593   -0.902296    1.599915
     24          1           0        0.019810    3.176778    0.235239
     25          1           0       -2.196356    0.917933    0.764386
     26          1           0       -1.190497   -1.928049    1.322417
     27          1           0       -0.561542   -0.462612    2.095806
     28          1           0       -2.238381   -0.946646    2.345979
     29          1           0       -3.601896   -0.102128   -0.999280
     30          1           0       -3.938172   -0.853467    0.568669
     31          1           0       -2.959655   -1.710782   -0.626392
 ---------------------------------------------------------------------

 SCF Done:  E(RmPW1PW91) =  -468.277071455     A.U. after   12 cycles

      1  C    Isotropic =   161.7143   Anisotropy =     9.0676

      2  C    Isotropic =   122.3488   Anisotropy =    44.7691

      3  C    Isotropic =   169.8800   Anisotropy =    18.3974

      4  C    Isotropic =   152.2266   Anisotropy =    19.6720

      5  C    Isotropic =   163.0219   Anisotropy =    17.8103

      6  C    Isotropic =   153.3940   Anisotropy =    33.1134

      7  C    Isotropic =   173.3742   Anisotropy =    37.5632

      8  O    Isotropic =   275.2523   Anisotropy =    60.3472

      9  C    Isotropic =   168.6504   Anisotropy =    10.6233

     10  C    Isotropic =   173.0821   Anisotropy =    22.3220

     11  C    Isotropic =   171.6750   Anisotropy =    40.1610

     12  H    Isotropic =    30.0754   Anisotropy =     7.3461

     13  H    Isotropic =    27.7388   Anisotropy =     5.1895

     14  H    Isotropic =    30.1898   Anisotropy =    10.1299

     15  H    Isotropic =    29.6115   Anisotropy =     7.8948

     16  H    Isotropic =    29.8133   Anisotropy =     7.2603

     17  H    Isotropic =    30.3301   Anisotropy =     9.1980

     18  H    Isotropic =    30.4110   Anisotropy =     5.1527

     19  H    Isotropic =    30.2650   Anisotropy =     7.1776

     20  H    Isotropic =    30.1436   Anisotropy =     3.1418

     21  H    Isotropic =    30.5267   Anisotropy =    10.6586

     22  H    Isotropic =    30.5912   Anisotropy =    10.6881

     23  H    Isotropic =    30.8763   Anisotropy =     7.8901

     24  H    Isotropic =    30.7417   Anisotropy =    17.9107

     25  H    Isotropic =    28.8255   Anisotropy =     6.5803

     26  H    Isotropic =    30.7418   Anisotropy =     6.0264

     27  H    Isotropic =    30.3707   Anisotropy =     7.2269

     28  H    Isotropic =    30.6720   Anisotropy =    10.7269

     29  H    Isotropic =    30.8464   Anisotropy =    10.6825

     30  H    Isotropic =    30.6946   Anisotropy =    10.5633

     31  H    Isotropic =    30.4788   Anisotropy =     7.0150

 The electronic state is 1-A.
 Alpha  occ. eigenvalues --  -19.24621 -10.29508 -10.25235 -10.24622 -10.24364
 Alpha  occ. eigenvalues --  -10.24166 -10.24076 -10.23840 -10.23505 -10.22858
 Alpha  occ. eigenvalues --  -10.22826  -1.05172  -0.85926  -0.81787  -0.76627
 Alpha  occ. eigenvalues --   -0.75365  -0.70357  -0.69288  -0.63460  -0.61703
 Alpha  occ. eigenvalues --   -0.58306  -0.54262  -0.52217  -0.49051  -0.47733
 Alpha  occ. eigenvalues --   -0.46446  -0.44642  -0.43602  -0.41840  -0.41247
 Alpha  occ. eigenvalues --   -0.40009  -0.39780  -0.39148  -0.38751  -0.37132
 Alpha  occ. eigenvalues --   -0.36924  -0.35484  -0.34105  -0.33382  -0.33238
 Alpha  occ. eigenvalues --   -0.31591  -0.30430  -0.30002  -0.28002
 Alpha virt. eigenvalues --    0.00504   0.01700   0.01918   0.02338   0.03774
 Alpha virt. eigenvalues --    0.04306   0.04653   0.04976   0.05646   0.06544
 Alpha virt. eigenvalues --    0.07216   0.07847   0.08464   0.08780   0.08954

 Mulliken atomic charges:
              1
     1  C    0.184156
     2  C   -0.066349
     3  C   -0.467966
     4  C   -0.096888
     5  C   -0.292091
     6  C   -0.336176
     7  C   -0.715675
     8  O   -0.506533
     9  C    0.156561
    10  C   -0.602559
    11  C   -0.654074
    12  H    0.156571
    13  H    0.143736
    14  H    0.163412
    15  H    0.158799
    16  H    0.154777
    17  H    0.155468
    18  H    0.158807
    19  H    0.148189
    20  H    0.166267
    21  H    0.163579
    22  H    0.161995
    23  H    0.163273
    24  H    0.360625
    25  H    0.185073
    26  H    0.160388
    27  H    0.153494
    28  H    0.162291
    29  H    0.161743
    30  H    0.161426
    31  H    0.157680
 Sum of Mulliken atomic charges =   0.00000

 Dipole moment (field-independent basis, Debye):
    X=              1.8010    Y=              0.0044    Z=             -0.4119  Tot=              1.8475
 Quadrupole moment (field-independent basis, Debye-Ang):
   XX=            -73.3180   YY=            -70.0787   ZZ=            -71.9561
   XY=              4.5260   XZ=             -0.4556   YZ=              0.2268

 Normal termination of Gaussian 09 at Thu Sep 19 10:47:28 2024.
